Spherical Glycine cluster of radius 1.8 nm
12525
    1GLY      N    1   1.525   1.795   1.364
    1GLY     CA    2   1.655   1.729   1.341
    1GLY      C    3   1.706   1.753   1.200
    1GLY      O    4   1.623   1.789   1.114
    1GLY     O1    5   1.828   1.733   1.179
    1GLY     H1    6   1.492   1.782   1.463
    1GLY     H2    7   1.533   1.896   1.348
    1GLY    HA1    8   1.727   1.765   1.414
    1GLY    HA2    9   1.642   1.621   1.356
    1GLY     H3   10   1.452   1.760   1.299
    1GLY      N   11   0.966   1.412   2.125
    1GLY     CA   12   1.096   1.478   2.102
    1GLY      C   13   1.148   1.454   1.960
    1GLY      O   14   1.065   1.417   1.874
    1GLY     O1   15   1.269   1.474   1.939
    1GLY     H1   16   0.933   1.424   2.224
    1GLY     H2   17   0.893   1.447   2.060
    1GLY    HA1   18   1.084   1.585   2.117
    1GLY    HA2   19   1.168   1.441   2.174
    1GLY     H3   20   0.974   1.310   2.108
    1GLY      N   21   1.323   1.795   1.871
    1GLY     CA   22   1.453   1.729   1.848
    1GLY      C   23   1.504   1.753   1.707
    1GLY      O   24   1.421   1.789   1.621
    1GLY     O1   25   1.626   1.733   1.686
    1GLY     H1   26   1.289   1.782   1.970
    1GLY     H2   27   1.331   1.896   1.855
    1GLY    HA1   28   1.525   1.765   1.921
    1GLY    HA2   29   1.440   1.621   1.863
    1GLY     H3   30   1.249   1.760   1.806
    1GLY      N   31   1.120   1.795   2.378
    1GLY     CA   32   1.250   1.729   2.355
    1GLY      C   33   1.301   1.753   2.214
    1GLY      O   34   1.218   1.789   2.128
    1GLY     O1   35   1.423   1.733   2.193
    1GLY     H1   36   1.086   1.782   2.477
    1GLY     H2   37   1.128   1.896   2.362
    1GLY    HA1   38   1.322   1.765   2.428
    1GLY    HA2   39   1.237   1.621   2.370
    1GLY     H3   40   1.047   1.760   2.313
    1GLY      N   41   0.918   1.795   2.885
    1GLY     CA   42   1.047   1.729   2.862
    1GLY      C   43   1.099   1.753   2.721
    1GLY      O   44   1.016   1.789   2.635
    1GLY     O1   45   1.220   1.733   2.700
    1GLY     H1   46   0.884   1.782   2.984
    1GLY     H2   47   0.926   1.896   2.869
    1GLY    HA1   48   1.120   1.765   2.935
    1GLY    HA2   49   1.035   1.621   2.877
    1GLY     H3   50   0.844   1.760   2.820
    1GLY      N   51   1.372   2.607   1.111
    1GLY     CA   52   1.501   2.673   1.088
    1GLY      C   53   1.553   2.649   0.946
    1GLY      O   54   1.470   2.612   0.860
    1GLY     O1   55   1.674   2.669   0.925
    1GLY     H1   56   1.338   2.619   1.210
    1GLY     H2   57   1.298   2.642   1.046
    1GLY    HA1   58   1.489   2.780   1.103
    1GLY    HA2   59   1.574   2.636   1.160
    1GLY     H3   60   1.380   2.505   1.094
    1GLY      N   61   1.169   2.607   1.618
    1GLY     CA   62   1.299   2.673   1.595
    1GLY      C   63   1.350   2.649   1.453
    1GLY      O   64   1.267   2.612   1.367
    1GLY     O1   65   1.472   2.669   1.432
    1GLY     H1   66   1.135   2.619   1.717
    1GLY     H2   67   1.096   2.642   1.553
    1GLY    HA1   68   1.286   2.780   1.610
    1GLY    HA2   69   1.371   2.636   1.667
    1GLY     H3   70   1.177   2.505   1.601
    1GLY      N   71   1.581   2.392   1.355
    1GLY     CA   72   1.451   2.326   1.378
    1GLY      C   73   1.400   2.350   1.520
    1GLY      O   74   1.483   2.387   1.606
    1GLY     O1   75   1.278   2.330   1.541
    1GLY     H1   76   1.614   2.380   1.256
    1GLY     H2   77   1.573   2.494   1.372
    1GLY    HA1   78   1.379   2.363   1.306
    1GLY    HA2   79   1.464   2.219   1.363
    1GLY     H3   80   1.654   2.357   1.420
    1GLY      N   81   1.525   2.990   1.364
    1GLY     CA   82   1.655   2.924   1.341
    1GLY      C   83   1.706   2.948   1.200
    1GLY      O   84   1.623   2.984   1.114
    1GLY     O1   85   1.828   2.928   1.179
    1GLY     H1   86   1.492   2.978   1.463
    1GLY     H2   87   1.533   3.091   1.348
    1GLY    HA1   88   1.727   2.960   1.414
    1GLY    HA2   89   1.642   2.817   1.356
    1GLY     H3   90   1.452   2.955   1.299
    1GLY      N   91   0.966   2.607   2.125
    1GLY     CA   92   1.096   2.673   2.102
    1GLY      C   93   1.148   2.649   1.960
    1GLY      O   94   1.065   2.612   1.874
    1GLY     O1   95   1.269   2.669   1.939
    1GLY     H1   96   0.933   2.619   2.224
    1GLY     H2   97   0.893   2.642   2.060
    1GLY    HA1   98   1.084   2.780   2.117
    1GLY    HA2   99   1.168   2.636   2.174
    1GLY     H3  100   0.974   2.505   2.108
    1GLY      N  101   1.378   2.392   1.862
    1GLY     CA  102   1.248   2.326   1.885
    1GLY      C  103   1.197   2.350   2.027
    1GLY      O  104   1.280   2.387   2.113
    1GLY     O1  105   1.075   2.330   2.048
    1GLY     H1  106   1.412   2.380   1.763
    1GLY     H2  107   1.370   2.494   1.879
    1GLY    HA1  108   1.176   2.363   1.813
    1GLY    HA2  109   1.261   2.219   1.870
    1GLY     H3  110   1.451   2.357   1.927
    1GLY      N  111   1.323   2.990   1.871
    1GLY     CA  112   1.453   2.924   1.848
    1GLY      C  113   1.504   2.948   1.707
    1GLY      O  114   1.421   2.984   1.621
    1GLY     O1  115   1.626   2.928   1.686
    1GLY     H1  116   1.289   2.978   1.970
    1GLY     H2  117   1.331   3.091   1.855
    1GLY    HA1  118   1.525   2.960   1.921
    1GLY    HA2  119   1.440   2.817   1.863
    1GLY     H3  120   1.249   2.955   1.806
    1GLY      N  121   0.764   2.607   2.632
    1GLY     CA  122   0.894   2.673   2.609
    1GLY      C  123   0.945   2.649   2.467
    1GLY      O  124   0.862   2.612   2.381
    1GLY     O1  125   1.067   2.669   2.446
    1GLY     H1  126   0.730   2.619   2.731
    1GLY     H2  127   0.691   2.642   2.567
    1GLY    HA1  128   0.881   2.780   2.624
    1GLY    HA2  129   0.966   2.636   2.681
    1GLY     H3  130   0.772   2.505   2.615
    1GLY      N  131   1.176   2.392   2.369
    1GLY     CA  132   1.046   2.326   2.392
    1GLY      C  133   0.994   2.350   2.534
    1GLY      O  134   1.078   2.387   2.620
    1GLY     O1  135   0.873   2.330   2.555
    1GLY     H1  136   1.209   2.380   2.270
    1GLY     H2  137   1.168   2.494   2.386
    1GLY    HA1  138   0.974   2.363   2.320
    1GLY    HA2  139   1.058   2.219   2.377
    1GLY     H3  140   1.249   2.357   2.434
    1GLY      N  141   1.120   2.990   2.378
    1GLY     CA  142   1.250   2.924   2.355
    1GLY      C  143   1.301   2.948   2.214
    1GLY      O  144   1.218   2.984   2.128
    1GLY     O1  145   1.423   2.928   2.193
    1GLY     H1  146   1.086   2.978   2.477
    1GLY     H2  147   1.128   3.091   2.362
    1GLY    HA1  148   1.322   2.960   2.428
    1GLY    HA2  149   1.237   2.817   2.370
    1GLY     H3  150   1.047   2.955   2.313
    1GLY      N  151   0.973   2.392   2.876
    1GLY     CA  152   0.843   2.326   2.899
    1GLY      C  153   0.792   2.350   3.041
    1GLY      O  154   0.875   2.387   3.127
    1GLY     O1  155   0.670   2.330   3.062
    1GLY     H1  156   1.007   2.380   2.777
    1GLY     H2  157   0.965   2.494   2.893
    1GLY    HA1  158   0.771   2.363   2.827
    1GLY    HA2  159   0.856   2.219   2.884
    1GLY     H3  160   1.046   2.357   2.941
    1GLY      N  161   0.918   2.990   2.885
    1GLY     CA  162   1.047   2.924   2.862
    1GLY      C  163   1.099   2.948   2.721
    1GLY      O  164   1.016   2.984   2.635
    1GLY     O1  165   1.220   2.928   2.700
    1GLY     H1  166   0.884   2.978   2.984
    1GLY     H2  167   0.926   3.091   2.869
    1GLY    HA1  168   1.120   2.960   2.935
    1GLY    HA2  169   1.035   2.817   2.877
    1GLY     H3  170   0.844   2.955   2.820
    1GLY      N  171   1.378   3.587   1.862
    1GLY     CA  172   1.248   3.522   1.885
    1GLY      C  173   1.197   3.546   2.027
    1GLY      O  174   1.280   3.582   2.113
    1GLY     O1  175   1.075   3.526   2.048
    1GLY     H1  176   1.412   3.575   1.763
    1GLY     H2  177   1.370   3.689   1.879
    1GLY    HA1  178   1.176   3.558   1.813
    1GLY    HA2  179   1.261   3.414   1.870
    1GLY     H3  180   1.451   3.552   1.927
    1GLY      N  181   1.176   3.587   2.369
    1GLY     CA  182   1.046   3.522   2.392
    1GLY      C  183   0.994   3.546   2.534
    1GLY      O  184   1.078   3.582   2.620
    1GLY     O1  185   0.873   3.526   2.555
    1GLY     H1  186   1.209   3.575   2.270
    1GLY     H2  187   1.168   3.689   2.386
    1GLY    HA1  188   0.974   3.558   2.320
    1GLY    HA2  189   1.058   3.414   2.377
    1GLY     H3  190   1.249   3.552   2.434
    1GLY      N  191   1.679   1.412   1.618
    1GLY     CA  192   1.809   1.478   1.595
    1GLY      C  193   1.860   1.454   1.453
    1GLY      O  194   1.777   1.417   1.367
    1GLY     O1  195   1.982   1.474   1.432
    1GLY     H1  196   1.645   1.424   1.717
    1GLY     H2  197   1.606   1.447   1.553
    1GLY    HA1  198   1.796   1.585   1.610
    1GLY    HA2  199   1.881   1.441   1.667
    1GLY     H3  200   1.687   1.310   1.601
    1GLY      N  201   2.035   1.795   1.364
    1GLY     CA  202   2.165   1.729   1.341
    1GLY      C  203   2.216   1.753   1.200
    1GLY      O  204   2.133   1.789   1.114
    1GLY     O1  205   2.338   1.733   1.179
    1GLY     H1  206   2.002   1.782   1.463
    1GLY     H2  207   2.043   1.896   1.348
    1GLY    HA1  208   2.237   1.765   1.414
    1GLY    HA2  209   2.152   1.621   1.356
    1GLY     H3  210   1.962   1.760   1.299
    1GLY      N  211   1.476   1.412   2.125
    1GLY     CA  212   1.606   1.478   2.102
    1GLY      C  213   1.658   1.454   1.960
    1GLY      O  214   1.575   1.417   1.874
    1GLY     O1  215   1.779   1.474   1.939
    1GLY     H1  216   1.443   1.424   2.224
    1GLY     H2  217   1.403   1.447   2.060
    1GLY    HA1  218   1.594   1.585   2.117
    1GLY    HA2  219   1.678   1.441   2.174
    1GLY     H3  220   1.484   1.310   2.108
    1GLY      N  221   1.888   1.197   1.862
    1GLY     CA  222   1.758   1.131   1.885
    1GLY      C  223   1.707   1.155   2.027
    1GLY      O  224   1.790   1.192   2.113
    1GLY     O1  225   1.585   1.135   2.048
    1GLY     H1  226   1.922   1.185   1.763
    1GLY     H2  227   1.880   1.299   1.879
    1GLY    HA1  228   1.686   1.168   1.813
    1GLY    HA2  229   1.771   1.024   1.870
    1GLY     H3  230   1.961   1.162   1.927
    1GLY      N  231   1.833   1.795   1.871
    1GLY     CA  232   1.963   1.729   1.848
    1GLY      C  233   2.014   1.753   1.707
    1GLY      O  234   1.931   1.789   1.621
    1GLY     O1  235   2.136   1.733   1.686
    1GLY     H1  236   1.799   1.782   1.970
    1GLY     H2  237   1.841   1.896   1.855
    1GLY    HA1  238   2.035   1.765   1.921
    1GLY    HA2  239   1.950   1.621   1.863
    1GLY     H3  240   1.759   1.760   1.806
    1GLY      N  241   1.274   1.412   2.632
    1GLY     CA  242   1.404   1.478   2.609
    1GLY      C  243   1.455   1.454   2.467
    1GLY      O  244   1.372   1.417   2.381
    1GLY     O1  245   1.577   1.474   2.446
    1GLY     H1  246   1.240   1.424   2.731
    1GLY     H2  247   1.201   1.447   2.567
    1GLY    HA1  248   1.391   1.585   2.624
    1GLY    HA2  249   1.476   1.441   2.681
    1GLY     H3  250   1.282   1.310   2.615
    1GLY      N  251   1.686   1.197   2.369
    1GLY     CA  252   1.556   1.131   2.392
    1GLY      C  253   1.504   1.155   2.534
    1GLY      O  254   1.588   1.192   2.620
    1GLY     O1  255   1.383   1.135   2.555
    1GLY     H1  256   1.719   1.185   2.270
    1GLY     H2  257   1.678   1.299   2.386
    1GLY    HA1  258   1.484   1.168   2.320
    1GLY    HA2  259   1.568   1.024   2.377
    1GLY     H3  260   1.759   1.162   2.434
    1GLY      N  261   1.630   1.795   2.378
    1GLY     CA  262   1.760   1.729   2.355
    1GLY      C  263   1.811   1.753   2.214
    1GLY      O  264   1.728   1.789   2.128
    1GLY     O1  265   1.933   1.733   2.193
    1GLY     H1  266   1.596   1.782   2.477
    1GLY     H2  267   1.638   1.896   2.362
    1GLY    HA1  268   1.832   1.765   2.428
    1GLY    HA2  269   1.747   1.621   2.370
    1GLY     H3  270   1.557   1.760   2.313
    1GLY      N  271   1.071   1.412   3.139
    1GLY     CA  272   1.201   1.478   3.116
    1GLY      C  273   1.252   1.454   2.974
    1GLY      O  274   1.169   1.417   2.888
    1GLY     O1  275   1.374   1.474   2.953
    1GLY     H1  276   1.038   1.424   3.238
    1GLY     H2  277   0.998   1.447   3.074
    1GLY    HA1  278   1.188   1.585   3.131
    1GLY    HA2  279   1.273   1.441   3.188
    1GLY     H3  280   1.079   1.310   3.122
    1GLY      N  281   1.428   1.795   2.885
    1GLY     CA  282   1.557   1.729   2.862
    1GLY      C  283   1.609   1.753   2.721
    1GLY      O  284   1.526   1.789   2.635
    1GLY     O1  285   1.730   1.733   2.700
    1GLY     H1  286   1.394   1.782   2.984
    1GLY     H2  287   1.436   1.896   2.869
    1GLY    HA1  288   1.630   1.765   2.935
    1GLY    HA2  289   1.545   1.621   2.877
    1GLY     H3  290   1.354   1.760   2.820
    1GLY      N  291   1.225   1.795   3.392
    1GLY     CA  292   1.355   1.729   3.369
    1GLY      C  293   1.406   1.753   3.227
    1GLY      O  294   1.323   1.789   3.142
    1GLY     O1  295   1.528   1.733   3.207
    1GLY     H1  296   1.191   1.782   3.491
    1GLY     H2  297   1.233   1.896   3.376
    1GLY    HA1  298   1.427   1.765   3.442
    1GLY    HA2  299   1.342   1.621   3.384
    1GLY     H3  300   1.152   1.760   3.327
    1GLY      N  301   1.882   2.607   1.111
    1GLY     CA  302   2.011   2.673   1.088
    1GLY      C  303   2.063   2.649   0.946
    1GLY      O  304   1.980   2.612   0.860
    1GLY     O1  305   2.184   2.669   0.925
    1GLY     H1  306   1.848   2.619   1.210
    1GLY     H2  307   1.808   2.642   1.046
    1GLY    HA1  308   1.999   2.780   1.103
    1GLY    HA2  309   2.084   2.636   1.160
    1GLY     H3  310   1.890   2.505   1.094
    1GLY      N  311   2.293   2.392   0.848
    1GLY     CA  312   2.163   2.326   0.871
    1GLY      C  313   2.112   2.350   1.013
    1GLY      O  314   2.195   2.387   1.099
    1GLY     O1  315   1.990   2.330   1.034
    1GLY     H1  316   2.327   2.380   0.749
    1GLY     H2  317   2.285   2.494   0.865
    1GLY    HA1  318   2.091   2.363   0.799
    1GLY    HA2  319   2.176   2.219   0.856
    1GLY     H3  320   2.367   2.357   0.913
    1GLY      N  321   1.937   2.009   1.102
    1GLY     CA  322   1.807   2.075   1.125
    1GLY      C  323   1.756   2.051   1.267
    1GLY      O  324   1.839   2.015   1.352
    1GLY     O1  325   1.634   2.071   1.287
    1GLY     H1  326   1.971   2.022   1.003
    1GLY     H2  327   2.010   2.044   1.167
    1GLY    HA1  328   1.820   2.183   1.110
    1GLY    HA2  329   1.735   2.039   1.052
    1GLY     H3  330   1.929   1.908   1.118
    1GLY      N  331   1.679   2.607   1.618
    1GLY     CA  332   1.809   2.673   1.595
    1GLY      C  333   1.860   2.649   1.453
    1GLY      O  334   1.777   2.612   1.367
    1GLY     O1  335   1.982   2.669   1.432
    1GLY     H1  336   1.645   2.619   1.717
    1GLY     H2  337   1.606   2.642   1.553
    1GLY    HA1  338   1.796   2.780   1.610
    1GLY    HA2  339   1.881   2.636   1.667
    1GLY     H3  340   1.687   2.505   1.601
    1GLY      N  341   2.091   2.392   1.355
    1GLY     CA  342   1.961   2.326   1.378
    1GLY      C  343   1.910   2.350   1.520
    1GLY      O  344   1.993   2.387   1.606
    1GLY     O1  345   1.788   2.330   1.541
    1GLY     H1  346   2.124   2.380   1.256
    1GLY     H2  347   2.083   2.494   1.372
    1GLY    HA1  348   1.889   2.363   1.306
    1GLY    HA2  349   1.974   2.219   1.363
    1GLY     H3  350   2.164   2.357   1.420
    1GLY      N  351   2.035   2.990   1.364
    1GLY     CA  352   2.165   2.924   1.341
    1GLY      C  353   2.216   2.948   1.200
    1GLY      O  354   2.133   2.984   1.114
    1GLY     O1  355   2.338   2.928   1.179
    1GLY     H1  356   2.002   2.978   1.463
    1GLY     H2  357   2.043   3.091   1.348
    1GLY    HA1  358   2.237   2.960   1.414
    1GLY    HA2  359   2.152   2.817   1.356
    1GLY     H3  360   1.962   2.955   1.299
    1GLY      N  361   1.734   2.009   1.609
    1GLY     CA  362   1.605   2.075   1.632
    1GLY      C  363   1.553   2.051   1.773
    1GLY      O  364   1.636   2.015   1.859
    1GLY     O1  365   1.432   2.071   1.794
    1GLY     H1  366   1.768   2.022   1.510
    1GLY     H2  367   1.808   2.044   1.674
    1GLY    HA1  368   1.617   2.183   1.617
    1GLY    HA2  369   1.532   2.039   1.559
    1GLY     H3  370   1.726   1.908   1.625
    1GLY      N  371   1.476   2.607   2.125
    1GLY     CA  372   1.606   2.673   2.102
    1GLY      C  373   1.658   2.649   1.960
    1GLY      O  374   1.575   2.612   1.874
    1GLY     O1  375   1.779   2.669   1.939
    1GLY     H1  376   1.443   2.619   2.224
    1GLY     H2  377   1.403   2.642   2.060
    1GLY    HA1  378   1.594   2.780   2.117
    1GLY    HA2  379   1.678   2.636   2.174
    1GLY     H3  380   1.484   2.505   2.108
    1GLY      N  381   1.888   2.392   1.862
    1GLY     CA  382   1.758   2.326   1.885
    1GLY      C  383   1.707   2.350   2.027
    1GLY      O  384   1.790   2.387   2.113
    1GLY     O1  385   1.585   2.330   2.048
    1GLY     H1  386   1.922   2.380   1.763
    1GLY     H2  387   1.880   2.494   1.879
    1GLY    HA1  388   1.686   2.363   1.813
    1GLY    HA2  389   1.771   2.219   1.870
    1GLY     H3  390   1.961   2.357   1.927
    1GLY      N  391   1.833   2.990   1.871
    1GLY     CA  392   1.963   2.924   1.848
    1GLY      C  393   2.014   2.948   1.707
    1GLY      O  394   1.931   2.984   1.621
    1GLY     O1  395   2.136   2.928   1.686
    1GLY     H1  396   1.799   2.978   1.970
    1GLY     H2  397   1.841   3.091   1.855
    1GLY    HA1  398   2.035   2.960   1.921
    1GLY    HA2  399   1.950   2.817   1.863
    1GLY     H3  400   1.759   2.955   1.806
    1GLY      N  401   1.532   2.009   2.116
    1GLY     CA  402   1.402   2.075   2.139
    1GLY      C  403   1.351   2.051   2.280
    1GLY      O  404   1.434   2.015   2.366
    1GLY     O1  405   1.229   2.071   2.301
    1GLY     H1  406   1.566   2.022   2.017
    1GLY     H2  407   1.605   2.044   2.181
    1GLY    HA1  408   1.415   2.183   2.124
    1GLY    HA2  409   1.330   2.039   2.066
    1GLY     H3  410   1.524   1.908   2.132
    1GLY      N  411   1.274   2.607   2.632
    1GLY     CA  412   1.404   2.673   2.609
    1GLY      C  413   1.455   2.649   2.467
    1GLY      O  414   1.372   2.612   2.381
    1GLY     O1  415   1.577   2.669   2.446
    1GLY     H1  416   1.240   2.619   2.731
    1GLY     H2  417   1.201   2.642   2.567
    1GLY    HA1  418   1.391   2.780   2.624
    1GLY    HA2  419   1.476   2.636   2.681
    1GLY     H3  420   1.282   2.505   2.615
    1GLY      N  421   1.686   2.392   2.369
    1GLY     CA  422   1.556   2.326   2.392
    1GLY      C  423   1.504   2.350   2.534
    1GLY      O  424   1.588   2.387   2.620
    1GLY     O1  425   1.383   2.330   2.555
    1GLY     H1  426   1.719   2.380   2.270
    1GLY     H2  427   1.678   2.494   2.386
    1GLY    HA1  428   1.484   2.363   2.320
    1GLY    HA2  429   1.568   2.219   2.377
    1GLY     H3  430   1.759   2.357   2.434
    1GLY      N  431   1.630   2.990   2.378
    1GLY     CA  432   1.760   2.924   2.355
    1GLY      C  433   1.811   2.948   2.214
    1GLY      O  434   1.728   2.984   2.128
    1GLY     O1  435   1.933   2.928   2.193
    1GLY     H1  436   1.596   2.978   2.477
    1GLY     H2  437   1.638   3.091   2.362
    1GLY    HA1  438   1.832   2.960   2.428
    1GLY    HA2  439   1.747   2.817   2.370
    1GLY     H3  440   1.557   2.955   2.313
    1GLY      N  441   1.329   2.009   2.623
    1GLY     CA  442   1.199   2.075   2.646
    1GLY      C  443   1.148   2.051   2.787
    1GLY      O  444   1.231   2.015   2.873
    1GLY     O1  445   1.026   2.071   2.808
    1GLY     H1  446   1.363   2.022   2.524
    1GLY     H2  447   1.403   2.044   2.688
    1GLY    HA1  448   1.212   2.183   2.631
    1GLY    HA2  449   1.127   2.039   2.573
    1GLY     H3  450   1.321   1.908   2.639
    1GLY      N  451   1.071   2.607   3.139
    1GLY     CA  452   1.201   2.673   3.116
    1GLY      C  453   1.252   2.649   2.974
    1GLY      O  454   1.169   2.612   2.888
    1GLY     O1  455   1.374   2.669   2.953
    1GLY     H1  456   1.038   2.619   3.238
    1GLY     H2  457   0.998   2.642   3.074
    1GLY    HA1  458   1.188   2.780   3.131
    1GLY    HA2  459   1.273   2.636   3.188
    1GLY     H3  460   1.079   2.505   3.122
    1GLY      N  461   1.483   2.392   2.876
    1GLY     CA  462   1.353   2.326   2.899
    1GLY      C  463   1.302   2.350   3.041
    1GLY      O  464   1.385   2.387   3.127
    1GLY     O1  465   1.180   2.330   3.062
    1GLY     H1  466   1.517   2.380   2.777
    1GLY     H2  467   1.475   2.494   2.893
    1GLY    HA1  468   1.281   2.363   2.827
    1GLY    HA2  469   1.366   2.219   2.884
    1GLY     H3  470   1.556   2.357   2.941
    1GLY      N  471   1.428   2.990   2.885
    1GLY     CA  472   1.557   2.924   2.862
    1GLY      C  473   1.609   2.948   2.721
    1GLY      O  474   1.526   2.984   2.635
    1GLY     O1  475   1.730   2.928   2.700
    1GLY     H1  476   1.394   2.978   2.984
    1GLY     H2  477   1.436   3.091   2.869
    1GLY    HA1  478   1.630   2.960   2.935
    1GLY    HA2  479   1.545   2.817   2.877
    1GLY     H3  480   1.354   2.955   2.820
    1GLY      N  481   1.127   2.009   3.130
    1GLY     CA  482   0.997   2.075   3.153
    1GLY      C  483   0.946   2.051   3.294
    1GLY      O  484   1.029   2.015   3.380
    1GLY     O1  485   0.824   2.071   3.315
    1GLY     H1  486   1.160   2.022   3.031
    1GLY     H2  487   1.200   2.044   3.195
    1GLY    HA1  488   1.010   2.183   3.138
    1GLY    HA2  489   0.925   2.039   3.080
    1GLY     H3  490   1.119   1.908   3.146
    1GLY      N  491   1.280   2.392   3.383
    1GLY     CA  492   1.151   2.326   3.406
    1GLY      C  493   1.099   2.350   3.548
    1GLY      O  494   1.182   2.387   3.634
    1GLY     O1  495   0.978   2.330   3.569
    1GLY     H1  496   1.314   2.380   3.284
    1GLY     H2  497   1.272   2.494   3.400
    1GLY    HA1  498   1.078   2.363   3.334
    1GLY    HA2  499   1.163   2.219   3.391
    1GLY     H3  500   1.354   2.357   3.448
    1GLY      N  501   1.225   2.990   3.392
    1GLY     CA  502   1.355   2.924   3.369
    1GLY      C  503   1.406   2.948   3.227
    1GLY      O  504   1.323   2.984   3.142
    1GLY     O1  505   1.528   2.928   3.207
    1GLY     H1  506   1.191   2.978   3.491
    1GLY     H2  507   1.233   3.091   3.376
    1GLY    HA1  508   1.427   2.960   3.442
    1GLY    HA2  509   1.342   2.817   3.384
    1GLY     H3  510   1.152   2.955   3.327
    1GLY      N  511   1.937   3.205   1.102
    1GLY     CA  512   1.807   3.270   1.125
    1GLY      C  513   1.756   3.246   1.267
    1GLY      O  514   1.839   3.210   1.352
    1GLY     O1  515   1.634   3.266   1.287
    1GLY     H1  516   1.971   3.217   1.003
    1GLY     H2  517   2.010   3.240   1.167
    1GLY    HA1  518   1.820   3.378   1.110
    1GLY    HA2  519   1.735   3.234   1.052
    1GLY     H3  520   1.929   3.103   1.118
    1GLY      N  521   1.679   3.802   1.618
    1GLY     CA  522   1.809   3.868   1.595
    1GLY      C  523   1.860   3.844   1.453
    1GLY      O  524   1.777   3.808   1.367
    1GLY     O1  525   1.982   3.864   1.432
    1GLY     H1  526   1.645   3.814   1.717
    1GLY     H2  527   1.606   3.837   1.553
    1GLY    HA1  528   1.796   3.975   1.610
    1GLY    HA2  529   1.881   3.831   1.667
    1GLY     H3  530   1.687   3.701   1.601
    1GLY      N  531   2.091   3.587   1.355
    1GLY     CA  532   1.961   3.522   1.378
    1GLY      C  533   1.910   3.546   1.520
    1GLY      O  534   1.993   3.582   1.606
    1GLY     O1  535   1.788   3.526   1.541
    1GLY     H1  536   2.124   3.575   1.256
    1GLY     H2  537   2.083   3.689   1.372
    1GLY    HA1  538   1.889   3.558   1.306
    1GLY    HA2  539   1.974   3.414   1.363
    1GLY     H3  540   2.164   3.552   1.420
    1GLY      N  541   1.734   3.205   1.609
    1GLY     CA  542   1.605   3.270   1.632
    1GLY      C  543   1.553   3.246   1.773
    1GLY      O  544   1.636   3.210   1.859
    1GLY     O1  545   1.432   3.266   1.794
    1GLY     H1  546   1.768   3.217   1.510
    1GLY     H2  547   1.808   3.240   1.674
    1GLY    HA1  548   1.617   3.378   1.617
    1GLY    HA2  549   1.532   3.234   1.559
    1GLY     H3  550   1.726   3.103   1.625
    1GLY      N  551   1.476   3.802   2.125
    1GLY     CA  552   1.606   3.868   2.102
    1GLY      C  553   1.658   3.844   1.960
    1GLY      O  554   1.575   3.808   1.874
    1GLY     O1  555   1.779   3.864   1.939
    1GLY     H1  556   1.443   3.814   2.224
    1GLY     H2  557   1.403   3.837   2.060
    1GLY    HA1  558   1.594   3.975   2.117
    1GLY    HA2  559   1.678   3.831   2.174
    1GLY     H3  560   1.484   3.701   2.108
    1GLY      N  561   1.888   3.587   1.862
    1GLY     CA  562   1.758   3.522   1.885
    1GLY      C  563   1.707   3.546   2.027
    1GLY      O  564   1.790   3.582   2.113
    1GLY     O1  565   1.585   3.526   2.048
    1GLY     H1  566   1.922   3.575   1.763
    1GLY     H2  567   1.880   3.689   1.879
    1GLY    HA1  568   1.686   3.558   1.813
    1GLY    HA2  569   1.771   3.414   1.870
    1GLY     H3  570   1.961   3.552   1.927
    1GLY      N  571   1.532   3.205   2.116
    1GLY     CA  572   1.402   3.270   2.139
    1GLY      C  573   1.351   3.246   2.280
    1GLY      O  574   1.434   3.210   2.366
    1GLY     O1  575   1.229   3.266   2.301
    1GLY     H1  576   1.566   3.217   2.017
    1GLY     H2  577   1.605   3.240   2.181
    1GLY    HA1  578   1.415   3.378   2.124
    1GLY    HA2  579   1.330   3.234   2.066
    1GLY     H3  580   1.524   3.103   2.132
    1GLY      N  581   1.274   3.802   2.632
    1GLY     CA  582   1.404   3.868   2.609
    1GLY      C  583   1.455   3.844   2.467
    1GLY      O  584   1.372   3.808   2.381
    1GLY     O1  585   1.577   3.864   2.446
    1GLY     H1  586   1.240   3.814   2.731
    1GLY     H2  587   1.201   3.837   2.567
    1GLY    HA1  588   1.391   3.975   2.624
    1GLY    HA2  589   1.476   3.831   2.681
    1GLY     H3  590   1.282   3.701   2.615
    1GLY      N  591   1.686   3.587   2.369
    1GLY     CA  592   1.556   3.522   2.392
    1GLY      C  593   1.504   3.546   2.534
    1GLY      O  594   1.588   3.582   2.620
    1GLY     O1  595   1.383   3.526   2.555
    1GLY     H1  596   1.719   3.575   2.270
    1GLY     H2  597   1.678   3.689   2.386
    1GLY    HA1  598   1.484   3.558   2.320
    1GLY    HA2  599   1.568   3.414   2.377
    1GLY     H3  600   1.759   3.552   2.434
    1GLY      N  601   1.630   4.185   2.378
    1GLY     CA  602   1.760   4.119   2.355
    1GLY      C  603   1.811   4.143   2.214
    1GLY      O  604   1.728   4.179   2.128
    1GLY     O1  605   1.933   4.123   2.193
    1GLY     H1  606   1.596   4.173   2.477
    1GLY     H2  607   1.638   4.286   2.362
    1GLY    HA1  608   1.832   4.156   2.428
    1GLY    HA2  609   1.747   4.012   2.370
    1GLY     H3  610   1.557   4.150   2.313
    1GLY      N  611   1.329   3.205   2.623
    1GLY     CA  612   1.199   3.270   2.646
    1GLY      C  613   1.148   3.246   2.787
    1GLY      O  614   1.231   3.210   2.873
    1GLY     O1  615   1.026   3.266   2.808
    1GLY     H1  616   1.363   3.217   2.524
    1GLY     H2  617   1.403   3.240   2.688
    1GLY    HA1  618   1.212   3.378   2.631
    1GLY    HA2  619   1.127   3.234   2.573
    1GLY     H3  620   1.321   3.103   2.639
    1GLY      N  621   1.483   3.587   2.876
    1GLY     CA  622   1.353   3.522   2.899
    1GLY      C  623   1.302   3.546   3.041
    1GLY      O  624   1.385   3.582   3.127
    1GLY     O1  625   1.180   3.526   3.062
    1GLY     H1  626   1.517   3.575   2.777
    1GLY     H2  627   1.475   3.689   2.893
    1GLY    HA1  628   1.281   3.558   2.827
    1GLY    HA2  629   1.366   3.414   2.884
    1GLY     H3  630   1.556   3.552   2.941
    1GLY      N  631   2.392   1.412   1.111
    1GLY     CA  632   2.521   1.478   1.088
    1GLY      C  633   2.573   1.454   0.946
    1GLY      O  634   2.490   1.417   0.860
    1GLY     O1  635   2.694   1.474   0.925
    1GLY     H1  636   2.358   1.424   1.210
    1GLY     H2  637   2.318   1.447   1.046
    1GLY    HA1  638   2.509   1.585   1.103
    1GLY    HA2  639   2.594   1.441   1.160
    1GLY     H3  640   2.400   1.310   1.094
    1GLY      N  641   2.189   1.412   1.618
    1GLY     CA  642   2.319   1.478   1.595
    1GLY      C  643   2.370   1.454   1.453
    1GLY      O  644   2.287   1.417   1.367
    1GLY     O1  645   2.492   1.474   1.432
    1GLY     H1  646   2.155   1.424   1.717
    1GLY     H2  647   2.116   1.447   1.553
    1GLY    HA1  648   2.306   1.585   1.610
    1GLY    HA2  649   2.391   1.441   1.667
    1GLY     H3  650   2.197   1.310   1.601
    1GLY      N  651   2.601   1.197   1.355
    1GLY     CA  652   2.471   1.131   1.378
    1GLY      C  653   2.420   1.155   1.520
    1GLY      O  654   2.503   1.192   1.606
    1GLY     O1  655   2.298   1.135   1.541
    1GLY     H1  656   2.634   1.185   1.256
    1GLY     H2  657   2.593   1.299   1.372
    1GLY    HA1  658   2.399   1.168   1.306
    1GLY    HA2  659   2.484   1.024   1.363
    1GLY     H3  660   2.674   1.162   1.420
    1GLY      N  661   2.545   1.795   1.364
    1GLY     CA  662   2.675   1.729   1.341
    1GLY      C  663   2.726   1.753   1.200
    1GLY      O  664   2.643   1.789   1.114
    1GLY     O1  665   2.848   1.733   1.179
    1GLY     H1  666   2.512   1.782   1.463
    1GLY     H2  667   2.553   1.896   1.348
    1GLY    HA1  668   2.747   1.765   1.414
    1GLY    HA2  669   2.662   1.621   1.356
    1GLY     H3  670   2.472   1.760   1.299
    1GLY      N  671   1.986   1.412   2.125
    1GLY     CA  672   2.116   1.478   2.102
    1GLY      C  673   2.168   1.454   1.960
    1GLY      O  674   2.084   1.417   1.874
    1GLY     O1  675   2.289   1.474   1.939
    1GLY     H1  676   1.953   1.424   2.224
    1GLY     H2  677   1.913   1.447   2.060
    1GLY    HA1  678   2.104   1.585   2.117
    1GLY    HA2  679   2.188   1.441   2.174
    1GLY     H3  680   1.994   1.310   2.108
    1GLY      N  681   2.398   1.197   1.862
    1GLY     CA  682   2.268   1.131   1.885
    1GLY      C  683   2.217   1.155   2.027
    1GLY      O  684   2.300   1.192   2.113
    1GLY     O1  685   2.095   1.135   2.048
    1GLY     H1  686   2.432   1.185   1.763
    1GLY     H2  687   2.390   1.299   1.879
    1GLY    HA1  688   2.196   1.168   1.813
    1GLY    HA2  689   2.281   1.024   1.870
    1GLY     H3  690   2.471   1.162   1.927
    1GLY      N  691   2.343   1.795   1.871
    1GLY     CA  692   2.473   1.729   1.848
    1GLY      C  693   2.524   1.753   1.707
    1GLY      O  694   2.441   1.789   1.621
    1GLY     O1  695   2.646   1.733   1.686
    1GLY     H1  696   2.309   1.782   1.970
    1GLY     H2  697   2.351   1.896   1.855
    1GLY    HA1  698   2.545   1.765   1.921
    1GLY    HA2  699   2.460   1.621   1.863
    1GLY     H3  700   2.269   1.760   1.806
    1GLY      N  701   2.042   0.814   2.116
    1GLY     CA  702   1.912   0.880   2.139
    1GLY      C  703   1.861   0.856   2.280
    1GLY      O  704   1.944   0.820   2.366
    1GLY     O1  705   1.739   0.876   2.301
    1GLY     H1  706   2.076   0.826   2.017
    1GLY     H2  707   2.115   0.849   2.181
    1GLY    HA1  708   1.925   0.987   2.124
    1GLY    HA2  709   1.840   0.844   2.066
    1GLY     H3  710   2.034   0.713   2.132
    1GLY      N  711   1.784   1.412   2.632
    1GLY     CA  712   1.914   1.478   2.609
    1GLY      C  713   1.965   1.454   2.467
    1GLY      O  714   1.882   1.417   2.381
    1GLY     O1  715   2.087   1.474   2.446
    1GLY     H1  716   1.750   1.424   2.731
    1GLY     H2  717   1.711   1.447   2.567
    1GLY    HA1  718   1.901   1.585   2.624
    1GLY    HA2  719   1.986   1.441   2.681
    1GLY     H3  720   1.792   1.310   2.615
    1GLY      N  721   2.196   1.197   2.369
    1GLY     CA  722   2.066   1.131   2.392
    1GLY      C  723   2.014   1.155   2.534
    1GLY      O  724   2.098   1.192   2.620
    1GLY     O1  725   1.893   1.135   2.555
    1GLY     H1  726   2.229   1.185   2.270
    1GLY     H2  727   2.188   1.299   2.386
    1GLY    HA1  728   1.994   1.168   2.320
    1GLY    HA2  729   2.078   1.024   2.377
    1GLY     H3  730   2.269   1.162   2.434
    1GLY      N  731   2.140   1.795   2.378
    1GLY     CA  732   2.270   1.729   2.355
    1GLY      C  733   2.321   1.753   2.214
    1GLY      O  734   2.238   1.789   2.128
    1GLY     O1  735   2.443   1.733   2.193
    1GLY     H1  736   2.106   1.782   2.477
    1GLY     H2  737   2.148   1.896   2.362
    1GLY    HA1  738   2.342   1.765   2.428
    1GLY    HA2  739   2.257   1.621   2.370
    1GLY     H3  740   2.067   1.760   2.313
    1GLY      N  741   1.581   1.412   3.139
    1GLY     CA  742   1.711   1.478   3.116
    1GLY      C  743   1.762   1.454   2.974
    1GLY      O  744   1.679   1.417   2.888
    1GLY     O1  745   1.884   1.474   2.953
    1GLY     H1  746   1.548   1.424   3.238
    1GLY     H2  747   1.508   1.447   3.074
    1GLY    HA1  748   1.698   1.585   3.131
    1GLY    HA2  749   1.783   1.441   3.188
    1GLY     H3  750   1.589   1.310   3.122
    1GLY      N  751   1.993   1.197   2.876
    1GLY     CA  752   1.863   1.131   2.899
    1GLY      C  753   1.812   1.155   3.041
    1GLY      O  754   1.895   1.192   3.127
    1GLY     O1  755   1.690   1.135   3.062
    1GLY     H1  756   2.027   1.185   2.777
    1GLY     H2  757   1.985   1.299   2.893
    1GLY    HA1  758   1.791   1.168   2.827
    1GLY    HA2  759   1.876   1.024   2.884
    1GLY     H3  760   2.066   1.162   2.941
    1GLY      N  761   1.938   1.795   2.885
    1GLY     CA  762   2.067   1.729   2.862
    1GLY      C  763   2.119   1.753   2.721
    1GLY      O  764   2.036   1.789   2.635
    1GLY     O1  765   2.240   1.733   2.700
    1GLY     H1  766   1.904   1.782   2.984
    1GLY     H2  767   1.946   1.896   2.869
    1GLY    HA1  768   2.140   1.765   2.935
    1GLY    HA2  769   2.055   1.621   2.877
    1GLY     H3  770   1.864   1.760   2.820
    1GLY      N  771   1.735   1.795   3.392
    1GLY     CA  772   1.865   1.729   3.369
    1GLY      C  773   1.916   1.753   3.227
    1GLY      O  774   1.833   1.789   3.142
    1GLY     O1  775   2.038   1.733   3.207
    1GLY     H1  776   1.701   1.782   3.491
    1GLY     H2  777   1.743   1.896   3.376
    1GLY    HA1  778   1.937   1.765   3.442
    1GLY    HA2  779   1.852   1.621   3.384
    1GLY     H3  780   1.662   1.760   3.327
    1GLY      N  781   1.532   1.795   3.899
    1GLY     CA  782   1.662   1.729   3.876
    1GLY      C  783   1.714   1.753   3.734
    1GLY      O  784   1.630   1.789   3.649
    1GLY     O1  785   1.835   1.733   3.714
    1GLY     H1  786   1.499   1.782   3.998
    1GLY     H2  787   1.540   1.896   3.883
    1GLY    HA1  788   1.734   1.765   3.949
    1GLY    HA2  789   1.650   1.621   3.891
    1GLY     H3  790   1.459   1.760   3.834
    1GLY      N  791   2.392   2.607   1.111
    1GLY     CA  792   2.521   2.673   1.088
    1GLY      C  793   2.573   2.649   0.946
    1GLY      O  794   2.490   2.612   0.860
    1GLY     O1  795   2.694   2.669   0.925
    1GLY     H1  796   2.358   2.619   1.210
    1GLY     H2  797   2.318   2.642   1.046
    1GLY    HA1  798   2.509   2.780   1.103
    1GLY    HA2  799   2.594   2.636   1.160
    1GLY     H3  800   2.400   2.505   1.094
    1GLY      N  801   2.803   2.392   0.848
    1GLY     CA  802   2.673   2.326   0.871
    1GLY      C  803   2.622   2.350   1.013
    1GLY      O  804   2.705   2.387   1.099
    1GLY     O1  805   2.500   2.330   1.034
    1GLY     H1  806   2.837   2.380   0.749
    1GLY     H2  807   2.795   2.494   0.865
    1GLY    HA1  808   2.601   2.363   0.799
    1GLY    HA2  809   2.686   2.219   0.856
    1GLY     H3  810   2.877   2.357   0.913
    1GLY      N  811   2.447   2.009   1.102
    1GLY     CA  812   2.317   2.075   1.125
    1GLY      C  813   2.266   2.051   1.267
    1GLY      O  814   2.349   2.015   1.352
    1GLY     O1  815   2.144   2.071   1.287
    1GLY     H1  816   2.481   2.022   1.003
    1GLY     H2  817   2.520   2.044   1.167
    1GLY    HA1  818   2.330   2.183   1.110
    1GLY    HA2  819   2.245   2.039   1.052
    1GLY     H3  820   2.439   1.908   1.118
    1GLY      N  821   2.189   2.607   1.618
    1GLY     CA  822   2.319   2.673   1.595
    1GLY      C  823   2.370   2.649   1.453
    1GLY      O  824   2.287   2.612   1.367
    1GLY     O1  825   2.492   2.669   1.432
    1GLY     H1  826   2.155   2.619   1.717
    1GLY     H2  827   2.116   2.642   1.553
    1GLY    HA1  828   2.306   2.780   1.610
    1GLY    HA2  829   2.391   2.636   1.667
    1GLY     H3  830   2.197   2.505   1.601
    1GLY      N  831   2.601   2.392   1.355
    1GLY     CA  832   2.471   2.326   1.378
    1GLY      C  833   2.420   2.350   1.520
    1GLY      O  834   2.503   2.387   1.606
    1GLY     O1  835   2.298   2.330   1.541
    1GLY     H1  836   2.634   2.380   1.256
    1GLY     H2  837   2.593   2.494   1.372
    1GLY    HA1  838   2.399   2.363   1.306
    1GLY    HA2  839   2.484   2.219   1.363
    1GLY     H3  840   2.674   2.357   1.420
    1GLY      N  841   2.545   2.990   1.364
    1GLY     CA  842   2.675   2.924   1.341
    1GLY      C  843   2.726   2.948   1.200
    1GLY      O  844   2.643   2.984   1.114
    1GLY     O1  845   2.848   2.928   1.179
    1GLY     H1  846   2.512   2.978   1.463
    1GLY     H2  847   2.553   3.091   1.348
    1GLY    HA1  848   2.747   2.960   1.414
    1GLY    HA2  849   2.662   2.817   1.356
    1GLY     H3  850   2.472   2.955   1.299
    1GLY      N  851   2.244   2.009   1.609
    1GLY     CA  852   2.115   2.075   1.632
    1GLY      C  853   2.063   2.051   1.773
    1GLY      O  854   2.146   2.015   1.859
    1GLY     O1  855   1.942   2.071   1.794
    1GLY     H1  856   2.278   2.022   1.510
    1GLY     H2  857   2.318   2.044   1.674
    1GLY    HA1  858   2.127   2.183   1.617
    1GLY    HA2  859   2.042   2.039   1.559
    1GLY     H3  860   2.236   1.908   1.625
    1GLY      N  861   1.986   2.607   2.125
    1GLY     CA  862   2.116   2.673   2.102
    1GLY      C  863   2.168   2.649   1.960
    1GLY      O  864   2.084   2.612   1.874
    1GLY     O1  865   2.289   2.669   1.939
    1GLY     H1  866   1.953   2.619   2.224
    1GLY     H2  867   1.913   2.642   2.060
    1GLY    HA1  868   2.104   2.780   2.117
    1GLY    HA2  869   2.188   2.636   2.174
    1GLY     H3  870   1.994   2.505   2.108
    1GLY      N  871   2.398   2.392   1.862
    1GLY     CA  872   2.268   2.326   1.885
    1GLY      C  873   2.217   2.350   2.027
    1GLY      O  874   2.300   2.387   2.113
    1GLY     O1  875   2.095   2.330   2.048
    1GLY     H1  876   2.432   2.380   1.763
    1GLY     H2  877   2.390   2.494   1.879
    1GLY    HA1  878   2.196   2.363   1.813
    1GLY    HA2  879   2.281   2.219   1.870
    1GLY     H3  880   2.471   2.357   1.927
    1GLY      N  881   2.343   2.990   1.871
    1GLY     CA  882   2.473   2.924   1.848
    1GLY      C  883   2.524   2.948   1.707
    1GLY      O  884   2.441   2.984   1.621
    1GLY     O1  885   2.646   2.928   1.686
    1GLY     H1  886   2.309   2.978   1.970
    1GLY     H2  887   2.351   3.091   1.855
    1GLY    HA1  888   2.545   2.960   1.921
    1GLY    HA2  889   2.460   2.817   1.863
    1GLY     H3  890   2.269   2.955   1.806
    1GLY      N  891   2.042   2.009   2.116
    1GLY     CA  892   1.912   2.075   2.139
    1GLY      C  893   1.861   2.051   2.280
    1GLY      O  894   1.944   2.015   2.366
    1GLY     O1  895   1.739   2.071   2.301
    1GLY     H1  896   2.076   2.022   2.017
    1GLY     H2  897   2.115   2.044   2.181
    1GLY    HA1  898   1.925   2.183   2.124
    1GLY    HA2  899   1.840   2.039   2.066
    1GLY     H3  900   2.034   1.908   2.132
    1GLY      N  901   1.784   2.607   2.632
    1GLY     CA  902   1.914   2.673   2.609
    1GLY      C  903   1.965   2.649   2.467
    1GLY      O  904   1.882   2.612   2.381
    1GLY     O1  905   2.087   2.669   2.446
    1GLY     H1  906   1.750   2.619   2.731
    1GLY     H2  907   1.711   2.642   2.567
    1GLY    HA1  908   1.901   2.780   2.624
    1GLY    HA2  909   1.986   2.636   2.681
    1GLY     H3  910   1.792   2.505   2.615
    1GLY      N  911   2.196   2.392   2.369
    1GLY     CA  912   2.066   2.326   2.392
    1GLY      C  913   2.014   2.350   2.534
    1GLY      O  914   2.098   2.387   2.620
    1GLY     O1  915   1.893   2.330   2.555
    1GLY     H1  916   2.229   2.380   2.270
    1GLY     H2  917   2.188   2.494   2.386
    1GLY    HA1  918   1.994   2.363   2.320
    1GLY    HA2  919   2.078   2.219   2.377
    1GLY     H3  920   2.269   2.357   2.434
    1GLY      N  921   2.140   2.990   2.378
    1GLY     CA  922   2.270   2.924   2.355
    1GLY      C  923   2.321   2.948   2.214
    1GLY      O  924   2.238   2.984   2.128
    1GLY     O1  925   2.443   2.928   2.193
    1GLY     H1  926   2.106   2.978   2.477
    1GLY     H2  927   2.148   3.091   2.362
    1GLY    HA1  928   2.342   2.960   2.428
    1GLY    HA2  929   2.257   2.817   2.370
    1GLY     H3  930   2.067   2.955   2.313
    1GLY      N  931   1.839   2.009   2.623
    1GLY     CA  932   1.709   2.075   2.646
    1GLY      C  933   1.658   2.051   2.787
    1GLY      O  934   1.741   2.015   2.873
    1GLY     O1  935   1.536   2.071   2.808
    1GLY     H1  936   1.873   2.022   2.524
    1GLY     H2  937   1.913   2.044   2.688
    1GLY    HA1  938   1.722   2.183   2.631
    1GLY    HA2  939   1.637   2.039   2.573
    1GLY     H3  940   1.831   1.908   2.639
    1GLY      N  941   1.581   2.607   3.139
    1GLY     CA  942   1.711   2.673   3.116
    1GLY      C  943   1.762   2.649   2.974
    1GLY      O  944   1.679   2.612   2.888
    1GLY     O1  945   1.884   2.669   2.953
    1GLY     H1  946   1.548   2.619   3.238
    1GLY     H2  947   1.508   2.642   3.074
    1GLY    HA1  948   1.698   2.780   3.131
    1GLY    HA2  949   1.783   2.636   3.188
    1GLY     H3  950   1.589   2.505   3.122
    1GLY      N  951   1.993   2.392   2.876
    1GLY     CA  952   1.863   2.326   2.899
    1GLY      C  953   1.812   2.350   3.041
    1GLY      O  954   1.895   2.387   3.127
    1GLY     O1  955   1.690   2.330   3.062
    1GLY     H1  956   2.027   2.380   2.777
    1GLY     H2  957   1.985   2.494   2.893
    1GLY    HA1  958   1.791   2.363   2.827
    1GLY    HA2  959   1.876   2.219   2.884
    1GLY     H3  960   2.066   2.357   2.941
    1GLY      N  961   1.938   2.990   2.885
    1GLY     CA  962   2.067   2.924   2.862
    1GLY      C  963   2.119   2.948   2.721
    1GLY      O  964   2.036   2.984   2.635
    1GLY     O1  965   2.240   2.928   2.700
    1GLY     H1  966   1.904   2.978   2.984
    1GLY     H2  967   1.946   3.091   2.869
    1GLY    HA1  968   2.140   2.960   2.935
    1GLY    HA2  969   2.055   2.817   2.877
    1GLY     H3  970   1.864   2.955   2.820
    1GLY      N  971   1.637   2.009   3.130
    1GLY     CA  972   1.507   2.075   3.153
    1GLY      C  973   1.456   2.051   3.294
    1GLY      O  974   1.539   2.015   3.380
    1GLY     O1  975   1.334   2.071   3.315
    1GLY     H1  976   1.670   2.022   3.031
    1GLY     H2  977   1.710   2.044   3.195
    1GLY    HA1  978   1.520   2.183   3.138
    1GLY    HA2  979   1.435   2.039   3.080
    1GLY     H3  980   1.629   1.908   3.146
    1GLY      N  981   1.379   2.607   3.646
    1GLY     CA  982   1.509   2.673   3.623
    1GLY      C  983   1.560   2.649   3.481
    1GLY      O  984   1.477   2.612   3.395
    1GLY     O1  985   1.682   2.669   3.460
    1GLY     H1  986   1.345   2.619   3.745
    1GLY     H2  987   1.305   2.642   3.581
    1GLY    HA1  988   1.496   2.780   3.638
    1GLY    HA2  989   1.581   2.636   3.695
    1GLY     H3  990   1.387   2.505   3.629
    1GLY      N  991   1.790   2.392   3.383
    1GLY     CA  992   1.661   2.326   3.406
    1GLY      C  993   1.609   2.350   3.548
    1GLY      O  994   1.692   2.387   3.634
    1GLY     O1  995   1.488   2.330   3.569
    1GLY     H1  996   1.824   2.380   3.284
    1GLY     H2  997   1.782   2.494   3.400
    1GLY    HA1  998   1.588   2.363   3.334
    1GLY    HA2  999   1.673   2.219   3.391
    1GLY     H3 1000   1.864   2.357   3.448
    1GLY      N 1001   1.735   2.990   3.392
    1GLY     CA 1002   1.865   2.924   3.369
    1GLY      C 1003   1.916   2.948   3.227
    1GLY      O 1004   1.833   2.984   3.142
    1GLY     O1 1005   2.038   2.928   3.207
    1GLY     H1 1006   1.701   2.978   3.491
    1GLY     H2 1007   1.743   3.091   3.376
    1GLY    HA1 1008   1.937   2.960   3.442
    1GLY    HA2 1009   1.852   2.817   3.384
    1GLY     H3 1010   1.662   2.955   3.327
    1GLY      N 1011   1.434   2.009   3.637
    1GLY     CA 1012   1.304   2.075   3.660
    1GLY      C 1013   1.253   2.051   3.801
    1GLY      O 1014   1.336   2.015   3.887
    1GLY     O1 1015   1.131   2.071   3.822
    1GLY     H1 1016   1.468   2.022   3.538
    1GLY     H2 1017   1.507   2.044   3.702
    1GLY    HA1 1018   1.317   2.183   3.645
    1GLY    HA2 1019   1.232   2.039   3.587
    1GLY     H3 1020   1.426   1.908   3.653
    1GLY      N 1021   1.588   2.392   3.890
    1GLY     CA 1022   1.458   2.326   3.913
    1GLY      C 1023   1.407   2.350   4.055
    1GLY      O 1024   1.490   2.387   4.141
    1GLY     O1 1025   1.285   2.330   4.076
    1GLY     H1 1026   1.622   2.380   3.791
    1GLY     H2 1027   1.580   2.494   3.907
    1GLY    HA1 1028   1.386   2.363   3.840
    1GLY    HA2 1029   1.471   2.219   3.898
    1GLY     H3 1030   1.661   2.357   3.955
    1GLY      N 1031   1.532   2.990   3.899
    1GLY     CA 1032   1.662   2.924   3.876
    1GLY      C 1033   1.714   2.948   3.734
    1GLY      O 1034   1.630   2.984   3.649
    1GLY     O1 1035   1.835   2.928   3.714
    1GLY     H1 1036   1.499   2.978   3.998
    1GLY     H2 1037   1.540   3.091   3.883
    1GLY    HA1 1038   1.734   2.960   3.949
    1GLY    HA2 1039   1.650   2.817   3.891
    1GLY     H3 1040   1.459   2.955   3.834
    1GLY      N 1041   2.447   3.205   1.102
    1GLY     CA 1042   2.317   3.270   1.125
    1GLY      C 1043   2.266   3.246   1.267
    1GLY      O 1044   2.349   3.210   1.352
    1GLY     O1 1045   2.144   3.266   1.287
    1GLY     H1 1046   2.481   3.217   1.003
    1GLY     H2 1047   2.520   3.240   1.167
    1GLY    HA1 1048   2.330   3.378   1.110
    1GLY    HA2 1049   2.245   3.234   1.052
    1GLY     H3 1050   2.439   3.103   1.118
    1GLY      N 1051   2.189   3.802   1.618
    1GLY     CA 1052   2.319   3.868   1.595
    1GLY      C 1053   2.370   3.844   1.453
    1GLY      O 1054   2.287   3.808   1.367
    1GLY     O1 1055   2.492   3.864   1.432
    1GLY     H1 1056   2.155   3.814   1.717
    1GLY     H2 1057   2.116   3.837   1.553
    1GLY    HA1 1058   2.306   3.975   1.610
    1GLY    HA2 1059   2.391   3.831   1.667
    1GLY     H3 1060   2.197   3.701   1.601
    1GLY      N 1061   2.601   3.587   1.355
    1GLY     CA 1062   2.471   3.522   1.378
    1GLY      C 1063   2.420   3.546   1.520
    1GLY      O 1064   2.503   3.582   1.606
    1GLY     O1 1065   2.298   3.526   1.541
    1GLY     H1 1066   2.634   3.575   1.256
    1GLY     H2 1067   2.593   3.689   1.372
    1GLY    HA1 1068   2.399   3.558   1.306
    1GLY    HA2 1069   2.484   3.414   1.363
    1GLY     H3 1070   2.674   3.552   1.420
    1GLY      N 1071   2.244   3.205   1.609
    1GLY     CA 1072   2.115   3.270   1.632
    1GLY      C 1073   2.063   3.246   1.773
    1GLY      O 1074   2.146   3.210   1.859
    1GLY     O1 1075   1.942   3.266   1.794
    1GLY     H1 1076   2.278   3.217   1.510
    1GLY     H2 1077   2.318   3.240   1.674
    1GLY    HA1 1078   2.127   3.378   1.617
    1GLY    HA2 1079   2.042   3.234   1.559
    1GLY     H3 1080   2.236   3.103   1.625
    1GLY      N 1081   1.986   3.802   2.125
    1GLY     CA 1082   2.116   3.868   2.102
    1GLY      C 1083   2.168   3.844   1.960
    1GLY      O 1084   2.084   3.808   1.874
    1GLY     O1 1085   2.289   3.864   1.939
    1GLY     H1 1086   1.953   3.814   2.224
    1GLY     H2 1087   1.913   3.837   2.060
    1GLY    HA1 1088   2.104   3.975   2.117
    1GLY    HA2 1089   2.188   3.831   2.174
    1GLY     H3 1090   1.994   3.701   2.108
    1GLY      N 1091   2.398   3.587   1.862
    1GLY     CA 1092   2.268   3.522   1.885
    1GLY      C 1093   2.217   3.546   2.027
    1GLY      O 1094   2.300   3.582   2.113
    1GLY     O1 1095   2.095   3.526   2.048
    1GLY     H1 1096   2.432   3.575   1.763
    1GLY     H2 1097   2.390   3.689   1.879
    1GLY    HA1 1098   2.196   3.558   1.813
    1GLY    HA2 1099   2.281   3.414   1.870
    1GLY     H3 1100   2.471   3.552   1.927
    1GLY      N 1101   2.343   4.185   1.871
    1GLY     CA 1102   2.473   4.119   1.848
    1GLY      C 1103   2.524   4.143   1.707
    1GLY      O 1104   2.441   4.179   1.621
    1GLY     O1 1105   2.646   4.123   1.686
    1GLY     H1 1106   2.309   4.173   1.970
    1GLY     H2 1107   2.351   4.286   1.855
    1GLY    HA1 1108   2.545   4.156   1.921
    1GLY    HA2 1109   2.460   4.012   1.863
    1GLY     H3 1110   2.269   4.150   1.806
    1GLY      N 1111   2.042   3.205   2.116
    1GLY     CA 1112   1.912   3.270   2.139
    1GLY      C 1113   1.861   3.246   2.280
    1GLY      O 1114   1.944   3.210   2.366
    1GLY     O1 1115   1.739   3.266   2.301
    1GLY     H1 1116   2.076   3.217   2.017
    1GLY     H2 1117   2.115   3.240   2.181
    1GLY    HA1 1118   1.925   3.378   2.124
    1GLY    HA2 1119   1.840   3.234   2.066
    1GLY     H3 1120   2.034   3.103   2.132
    1GLY      N 1121   1.784   3.802   2.632
    1GLY     CA 1122   1.914   3.868   2.609
    1GLY      C 1123   1.965   3.844   2.467
    1GLY      O 1124   1.882   3.808   2.381
    1GLY     O1 1125   2.087   3.864   2.446
    1GLY     H1 1126   1.750   3.814   2.731
    1GLY     H2 1127   1.711   3.837   2.567
    1GLY    HA1 1128   1.901   3.975   2.624
    1GLY    HA2 1129   1.986   3.831   2.681
    1GLY     H3 1130   1.792   3.701   2.615
    1GLY      N 1131   2.196   3.587   2.369
    1GLY     CA 1132   2.066   3.522   2.392
    1GLY      C 1133   2.014   3.546   2.534
    1GLY      O 1134   2.098   3.582   2.620
    1GLY     O1 1135   1.893   3.526   2.555
    1GLY     H1 1136   2.229   3.575   2.270
    1GLY     H2 1137   2.188   3.689   2.386
    1GLY    HA1 1138   1.994   3.558   2.320
    1GLY    HA2 1139   2.078   3.414   2.377
    1GLY     H3 1140   2.269   3.552   2.434
    1GLY      N 1141   2.140   4.185   2.378
    1GLY     CA 1142   2.270   4.119   2.355
    1GLY      C 1143   2.321   4.143   2.214
    1GLY      O 1144   2.238   4.179   2.128
    1GLY     O1 1145   2.443   4.123   2.193
    1GLY     H1 1146   2.106   4.173   2.477
    1GLY     H2 1147   2.148   4.286   2.362
    1GLY    HA1 1148   2.342   4.156   2.428
    1GLY    HA2 1149   2.257   4.012   2.370
    1GLY     H3 1150   2.067   4.150   2.313
    1GLY      N 1151   1.839   3.205   2.623
    1GLY     CA 1152   1.709   3.270   2.646
    1GLY      C 1153   1.658   3.246   2.787
    1GLY      O 1154   1.741   3.210   2.873
    1GLY     O1 1155   1.536   3.266   2.808
    1GLY     H1 1156   1.873   3.217   2.524
    1GLY     H2 1157   1.913   3.240   2.688
    1GLY    HA1 1158   1.722   3.378   2.631
    1GLY    HA2 1159   1.637   3.234   2.573
    1GLY     H3 1160   1.831   3.103   2.639
    1GLY      N 1161   1.581   3.802   3.139
    1GLY     CA 1162   1.711   3.868   3.116
    1GLY      C 1163   1.762   3.844   2.974
    1GLY      O 1164   1.679   3.808   2.888
    1GLY     O1 1165   1.884   3.864   2.953
    1GLY     H1 1166   1.548   3.814   3.238
    1GLY     H2 1167   1.508   3.837   3.074
    1GLY    HA1 1168   1.698   3.975   3.131
    1GLY    HA2 1169   1.783   3.831   3.188
    1GLY     H3 1170   1.589   3.701   3.122
    1GLY      N 1171   1.993   3.587   2.876
    1GLY     CA 1172   1.863   3.522   2.899
    1GLY      C 1173   1.812   3.546   3.041
    1GLY      O 1174   1.895   3.582   3.127
    1GLY     O1 1175   1.690   3.526   3.062
    1GLY     H1 1176   2.027   3.575   2.777
    1GLY     H2 1177   1.985   3.689   2.893
    1GLY    HA1 1178   1.791   3.558   2.827
    1GLY    HA2 1179   1.876   3.414   2.884
    1GLY     H3 1180   2.066   3.552   2.941
    1GLY      N 1181   1.938   4.185   2.885
    1GLY     CA 1182   2.067   4.119   2.862
    1GLY      C 1183   2.119   4.143   2.721
    1GLY      O 1184   2.036   4.179   2.635
    1GLY     O1 1185   2.240   4.123   2.700
    1GLY     H1 1186   1.904   4.173   2.984
    1GLY     H2 1187   1.946   4.286   2.869
    1GLY    HA1 1188   2.140   4.156   2.935
    1GLY    HA2 1189   2.055   4.012   2.877
    1GLY     H3 1190   1.864   4.150   2.820
    1GLY      N 1191   1.637   3.205   3.130
    1GLY     CA 1192   1.507   3.270   3.153
    1GLY      C 1193   1.456   3.246   3.294
    1GLY      O 1194   1.539   3.210   3.380
    1GLY     O1 1195   1.334   3.266   3.315
    1GLY     H1 1196   1.670   3.217   3.031
    1GLY     H2 1197   1.710   3.240   3.195
    1GLY    HA1 1198   1.520   3.378   3.138
    1GLY    HA2 1199   1.435   3.234   3.080
    1GLY     H3 1200   1.629   3.103   3.146
    1GLY      N 1201   1.790   3.587   3.383
    1GLY     CA 1202   1.661   3.522   3.406
    1GLY      C 1203   1.609   3.546   3.548
    1GLY      O 1204   1.692   3.582   3.634
    1GLY     O1 1205   1.488   3.526   3.569
    1GLY     H1 1206   1.824   3.575   3.284
    1GLY     H2 1207   1.782   3.689   3.400
    1GLY    HA1 1208   1.588   3.558   3.334
    1GLY    HA2 1209   1.673   3.414   3.391
    1GLY     H3 1210   1.864   3.552   3.448
    1GLY      N 1211   2.699   1.412   1.618
    1GLY     CA 1212   2.829   1.478   1.595
    1GLY      C 1213   2.880   1.454   1.453
    1GLY      O 1214   2.797   1.417   1.367
    1GLY     O1 1215   3.002   1.474   1.432
    1GLY     H1 1216   2.665   1.424   1.717
    1GLY     H2 1217   2.626   1.447   1.553
    1GLY    HA1 1218   2.816   1.585   1.610
    1GLY    HA2 1219   2.901   1.441   1.667
    1GLY     H3 1220   2.707   1.310   1.601
    1GLY      N 1221   3.055   1.795   1.364
    1GLY     CA 1222   3.185   1.729   1.341
    1GLY      C 1223   3.236   1.753   1.200
    1GLY      O 1224   3.153   1.789   1.114
    1GLY     O1 1225   3.358   1.733   1.179
    1GLY     H1 1226   3.022   1.782   1.463
    1GLY     H2 1227   3.063   1.896   1.348
    1GLY    HA1 1228   3.257   1.765   1.414
    1GLY    HA2 1229   3.172   1.621   1.356
    1GLY     H3 1230   2.982   1.760   1.299
    1GLY      N 1231   2.496   1.412   2.125
    1GLY     CA 1232   2.626   1.478   2.102
    1GLY      C 1233   2.678   1.454   1.960
    1GLY      O 1234   2.594   1.417   1.874
    1GLY     O1 1235   2.799   1.474   1.939
    1GLY     H1 1236   2.463   1.424   2.224
    1GLY     H2 1237   2.423   1.447   2.060
    1GLY    HA1 1238   2.614   1.585   2.117
    1GLY    HA2 1239   2.698   1.441   2.174
    1GLY     H3 1240   2.504   1.310   2.108
    1GLY      N 1241   2.908   1.197   1.862
    1GLY     CA 1242   2.778   1.131   1.885
    1GLY      C 1243   2.727   1.155   2.027
    1GLY      O 1244   2.810   1.192   2.113
    1GLY     O1 1245   2.605   1.135   2.048
    1GLY     H1 1246   2.942   1.185   1.763
    1GLY     H2 1247   2.900   1.299   1.879
    1GLY    HA1 1248   2.706   1.168   1.813
    1GLY    HA2 1249   2.791   1.024   1.870
    1GLY     H3 1250   2.981   1.162   1.927
    1GLY      N 1251   2.853   1.795   1.871
    1GLY     CA 1252   2.983   1.729   1.848
    1GLY      C 1253   3.034   1.753   1.707
    1GLY      O 1254   2.951   1.789   1.621
    1GLY     O1 1255   3.156   1.733   1.686
    1GLY     H1 1256   2.819   1.782   1.970
    1GLY     H2 1257   2.861   1.896   1.855
    1GLY    HA1 1258   3.055   1.765   1.921
    1GLY    HA2 1259   2.970   1.621   1.863
    1GLY     H3 1260   2.779   1.760   1.806
    1GLY      N 1261   2.552   0.814   2.116
    1GLY     CA 1262   2.422   0.880   2.139
    1GLY      C 1263   2.371   0.856   2.280
    1GLY      O 1264   2.454   0.820   2.366
    1GLY     O1 1265   2.249   0.876   2.301
    1GLY     H1 1266   2.586   0.826   2.017
    1GLY     H2 1267   2.625   0.849   2.181
    1GLY    HA1 1268   2.435   0.987   2.124
    1GLY    HA2 1269   2.350   0.844   2.066
    1GLY     H3 1270   2.544   0.713   2.132
    1GLY      N 1271   2.294   1.412   2.632
    1GLY     CA 1272   2.424   1.478   2.609
    1GLY      C 1273   2.475   1.454   2.467
    1GLY      O 1274   2.392   1.417   2.381
    1GLY     O1 1275   2.597   1.474   2.446
    1GLY     H1 1276   2.260   1.424   2.731
    1GLY     H2 1277   2.221   1.447   2.567
    1GLY    HA1 1278   2.411   1.585   2.624
    1GLY    HA2 1279   2.496   1.441   2.681
    1GLY     H3 1280   2.302   1.310   2.615
    1GLY      N 1281   2.706   1.197   2.369
    1GLY     CA 1282   2.576   1.131   2.392
    1GLY      C 1283   2.524   1.155   2.534
    1GLY      O 1284   2.608   1.192   2.620
    1GLY     O1 1285   2.403   1.135   2.555
    1GLY     H1 1286   2.739   1.185   2.270
    1GLY     H2 1287   2.698   1.299   2.386
    1GLY    HA1 1288   2.504   1.168   2.320
    1GLY    HA2 1289   2.588   1.024   2.377
    1GLY     H3 1290   2.779   1.162   2.434
    1GLY      N 1291   2.650   1.795   2.378
    1GLY     CA 1292   2.780   1.729   2.355
    1GLY      C 1293   2.831   1.753   2.214
    1GLY      O 1294   2.748   1.789   2.128
    1GLY     O1 1295   2.953   1.733   2.193
    1GLY     H1 1296   2.616   1.782   2.477
    1GLY     H2 1297   2.658   1.896   2.362
    1GLY    HA1 1298   2.852   1.765   2.428
    1GLY    HA2 1299   2.767   1.621   2.370
    1GLY     H3 1300   2.577   1.760   2.313
    1GLY      N 1301   2.349   0.814   2.623
    1GLY     CA 1302   2.219   0.880   2.646
    1GLY      C 1303   2.168   0.856   2.787
    1GLY      O 1304   2.251   0.820   2.873
    1GLY     O1 1305   2.046   0.876   2.808
    1GLY     H1 1306   2.383   0.826   2.524
    1GLY     H2 1307   2.423   0.849   2.688
    1GLY    HA1 1308   2.232   0.987   2.631
    1GLY    HA2 1309   2.147   0.844   2.573
    1GLY     H3 1310   2.341   0.713   2.639
    1GLY      N 1311   2.091   1.412   3.139
    1GLY     CA 1312   2.221   1.478   3.116
    1GLY      C 1313   2.272   1.454   2.974
    1GLY      O 1314   2.189   1.417   2.888
    1GLY     O1 1315   2.394   1.474   2.953
    1GLY     H1 1316   2.058   1.424   3.238
    1GLY     H2 1317   2.018   1.447   3.074
    1GLY    HA1 1318   2.208   1.585   3.131
    1GLY    HA2 1319   2.293   1.441   3.188
    1GLY     H3 1320   2.099   1.310   3.122
    1GLY      N 1321   2.503   1.197   2.876
    1GLY     CA 1322   2.373   1.131   2.899
    1GLY      C 1323   2.322   1.155   3.041
    1GLY      O 1324   2.405   1.192   3.127
    1GLY     O1 1325   2.200   1.135   3.062
    1GLY     H1 1326   2.537   1.185   2.777
    1GLY     H2 1327   2.495   1.299   2.893
    1GLY    HA1 1328   2.301   1.168   2.827
    1GLY    HA2 1329   2.386   1.024   2.884
    1GLY     H3 1330   2.576   1.162   2.941
    1GLY      N 1331   2.448   1.795   2.885
    1GLY     CA 1332   2.577   1.729   2.862
    1GLY      C 1333   2.629   1.753   2.721
    1GLY      O 1334   2.546   1.789   2.635
    1GLY     O1 1335   2.750   1.733   2.700
    1GLY     H1 1336   2.414   1.782   2.984
    1GLY     H2 1337   2.456   1.896   2.869
    1GLY    HA1 1338   2.650   1.765   2.935
    1GLY    HA2 1339   2.565   1.621   2.877
    1GLY     H3 1340   2.374   1.760   2.820
    1GLY      N 1341   1.889   1.412   3.646
    1GLY     CA 1342   2.019   1.478   3.623
    1GLY      C 1343   2.070   1.454   3.481
    1GLY      O 1344   1.987   1.417   3.395
    1GLY     O1 1345   2.192   1.474   3.460
    1GLY     H1 1346   1.855   1.424   3.745
    1GLY     H2 1347   1.815   1.447   3.581
    1GLY    HA1 1348   2.006   1.585   3.638
    1GLY    HA2 1349   2.091   1.441   3.695
    1GLY     H3 1350   1.897   1.310   3.629
    1GLY      N 1351   2.300   1.197   3.383
    1GLY     CA 1352   2.171   1.131   3.406
    1GLY      C 1353   2.119   1.155   3.548
    1GLY      O 1354   2.202   1.192   3.634
    1GLY     O1 1355   1.998   1.135   3.569
    1GLY     H1 1356   2.334   1.185   3.284
    1GLY     H2 1357   2.292   1.299   3.400
    1GLY    HA1 1358   2.098   1.168   3.334
    1GLY    HA2 1359   2.183   1.024   3.391
    1GLY     H3 1360   2.374   1.162   3.448
    1GLY      N 1361   2.245   1.795   3.392
    1GLY     CA 1362   2.375   1.729   3.369
    1GLY      C 1363   2.426   1.753   3.227
    1GLY      O 1364   2.343   1.789   3.142
    1GLY     O1 1365   2.548   1.733   3.207
    1GLY     H1 1366   2.211   1.782   3.491
    1GLY     H2 1367   2.253   1.896   3.376
    1GLY    HA1 1368   2.447   1.765   3.442
    1GLY    HA2 1369   2.362   1.621   3.384
    1GLY     H3 1370   2.172   1.760   3.327
    1GLY      N 1371   2.042   1.795   3.899
    1GLY     CA 1372   2.172   1.729   3.876
    1GLY      C 1373   2.224   1.753   3.734
    1GLY      O 1374   2.140   1.789   3.649
    1GLY     O1 1375   2.345   1.733   3.714
    1GLY     H1 1376   2.009   1.782   3.998
    1GLY     H2 1377   2.050   1.896   3.883
    1GLY    HA1 1378   2.244   1.765   3.949
    1GLY    HA2 1379   2.160   1.621   3.891
    1GLY     H3 1380   1.969   1.760   3.834
    1GLY      N 1381   2.902   2.607   1.111
    1GLY     CA 1382   3.031   2.673   1.088
    1GLY      C 1383   3.083   2.649   0.946
    1GLY      O 1384   3.000   2.612   0.860
    1GLY     O1 1385   3.204   2.669   0.925
    1GLY     H1 1386   2.868   2.619   1.210
    1GLY     H2 1387   2.828   2.642   1.046
    1GLY    HA1 1388   3.019   2.780   1.103
    1GLY    HA2 1389   3.104   2.636   1.160
    1GLY     H3 1390   2.910   2.505   1.094
    1GLY      N 1391   3.313   2.392   0.848
    1GLY     CA 1392   3.183   2.326   0.871
    1GLY      C 1393   3.132   2.350   1.013
    1GLY      O 1394   3.215   2.387   1.099
    1GLY     O1 1395   3.010   2.330   1.034
    1GLY     H1 1396   3.347   2.380   0.749
    1GLY     H2 1397   3.305   2.494   0.865
    1GLY    HA1 1398   3.111   2.363   0.799
    1GLY    HA2 1399   3.196   2.219   0.856
    1GLY     H3 1400   3.387   2.357   0.913
    1GLY      N 1401   2.957   2.009   1.102
    1GLY     CA 1402   2.827   2.075   1.125
    1GLY      C 1403   2.776   2.051   1.267
    1GLY      O 1404   2.859   2.015   1.352
    1GLY     O1 1405   2.654   2.071   1.287
    1GLY     H1 1406   2.991   2.022   1.003
    1GLY     H2 1407   3.030   2.044   1.167
    1GLY    HA1 1408   2.840   2.183   1.110
    1GLY    HA2 1409   2.755   2.039   1.052
    1GLY     H3 1410   2.949   1.908   1.118
    1GLY      N 1411   2.699   2.607   1.618
    1GLY     CA 1412   2.829   2.673   1.595
    1GLY      C 1413   2.880   2.649   1.453
    1GLY      O 1414   2.797   2.612   1.367
    1GLY     O1 1415   3.002   2.669   1.432
    1GLY     H1 1416   2.665   2.619   1.717
    1GLY     H2 1417   2.626   2.642   1.553
    1GLY    HA1 1418   2.816   2.780   1.610
    1GLY    HA2 1419   2.901   2.636   1.667
    1GLY     H3 1420   2.707   2.505   1.601
    1GLY      N 1421   3.111   2.392   1.355
    1GLY     CA 1422   2.981   2.326   1.378
    1GLY      C 1423   2.930   2.350   1.520
    1GLY      O 1424   3.013   2.387   1.606
    1GLY     O1 1425   2.808   2.330   1.541
    1GLY     H1 1426   3.144   2.380   1.256
    1GLY     H2 1427   3.103   2.494   1.372
    1GLY    HA1 1428   2.909   2.363   1.306
    1GLY    HA2 1429   2.994   2.219   1.363
    1GLY     H3 1430   3.184   2.357   1.420
    1GLY      N 1431   3.055   2.990   1.364
    1GLY     CA 1432   3.185   2.924   1.341
    1GLY      C 1433   3.236   2.948   1.200
    1GLY      O 1434   3.153   2.984   1.114
    1GLY     O1 1435   3.358   2.928   1.179
    1GLY     H1 1436   3.022   2.978   1.463
    1GLY     H2 1437   3.063   3.091   1.348
    1GLY    HA1 1438   3.257   2.960   1.414
    1GLY    HA2 1439   3.172   2.817   1.356
    1GLY     H3 1440   2.982   2.955   1.299
    1GLY      N 1441   2.754   2.009   1.609
    1GLY     CA 1442   2.625   2.075   1.632
    1GLY      C 1443   2.573   2.051   1.773
    1GLY      O 1444   2.656   2.015   1.859
    1GLY     O1 1445   2.452   2.071   1.794
    1GLY     H1 1446   2.788   2.022   1.510
    1GLY     H2 1447   2.828   2.044   1.674
    1GLY    HA1 1448   2.637   2.183   1.617
    1GLY    HA2 1449   2.552   2.039   1.559
    1GLY     H3 1450   2.746   1.908   1.625
    1GLY      N 1451   2.496   2.607   2.125
    1GLY     CA 1452   2.626   2.673   2.102
    1GLY      C 1453   2.678   2.649   1.960
    1GLY      O 1454   2.594   2.612   1.874
    1GLY     O1 1455   2.799   2.669   1.939
    1GLY     H1 1456   2.463   2.619   2.224
    1GLY     H2 1457   2.423   2.642   2.060
    1GLY    HA1 1458   2.614   2.780   2.117
    1GLY    HA2 1459   2.698   2.636   2.174
    1GLY     H3 1460   2.504   2.505   2.108
    1GLY      N 1461   2.908   2.392   1.862
    1GLY     CA 1462   2.778   2.326   1.885
    1GLY      C 1463   2.727   2.350   2.027
    1GLY      O 1464   2.810   2.387   2.113
    1GLY     O1 1465   2.605   2.330   2.048
    1GLY     H1 1466   2.942   2.380   1.763
    1GLY     H2 1467   2.900   2.494   1.879
    1GLY    HA1 1468   2.706   2.363   1.813
    1GLY    HA2 1469   2.791   2.219   1.870
    1GLY     H3 1470   2.981   2.357   1.927
    1GLY      N 1471   2.853   2.990   1.871
    1GLY     CA 1472   2.983   2.924   1.848
    1GLY      C 1473   3.034   2.948   1.707
    1GLY      O 1474   2.951   2.984   1.621
    1GLY     O1 1475   3.156   2.928   1.686
    1GLY     H1 1476   2.819   2.978   1.970
    1GLY     H2 1477   2.861   3.091   1.855
    1GLY    HA1 1478   3.055   2.960   1.921
    1GLY    HA2 1479   2.970   2.817   1.863
    1GLY     H3 1480   2.779   2.955   1.806
    1GLY      N 1481   2.552   2.009   2.116
    1GLY     CA 1482   2.422   2.075   2.139
    1GLY      C 1483   2.371   2.051   2.280
    1GLY      O 1484   2.454   2.015   2.366
    1GLY     O1 1485   2.249   2.071   2.301
    1GLY     H1 1486   2.586   2.022   2.017
    1GLY     H2 1487   2.625   2.044   2.181
    1GLY    HA1 1488   2.435   2.183   2.124
    1GLY    HA2 1489   2.350   2.039   2.066
    1GLY     H3 1490   2.544   1.908   2.132
    1GLY      N 1491   2.294   2.607   2.632
    1GLY     CA 1492   2.424   2.673   2.609
    1GLY      C 1493   2.475   2.649   2.467
    1GLY      O 1494   2.392   2.612   2.381
    1GLY     O1 1495   2.597   2.669   2.446
    1GLY     H1 1496   2.260   2.619   2.731
    1GLY     H2 1497   2.221   2.642   2.567
    1GLY    HA1 1498   2.411   2.780   2.624
    1GLY    HA2 1499   2.496   2.636   2.681
    1GLY     H3 1500   2.302   2.505   2.615
    1GLY      N 1501   2.706   2.392   2.369
    1GLY     CA 1502   2.576   2.326   2.392
    1GLY      C 1503   2.524   2.350   2.534
    1GLY      O 1504   2.608   2.387   2.620
    1GLY     O1 1505   2.403   2.330   2.555
    1GLY     H1 1506   2.739   2.380   2.270
    1GLY     H2 1507   2.698   2.494   2.386
    1GLY    HA1 1508   2.504   2.363   2.320
    1GLY    HA2 1509   2.588   2.219   2.377
    1GLY     H3 1510   2.779   2.357   2.434
    1GLY      N 1511   2.650   2.990   2.378
    1GLY     CA 1512   2.780   2.924   2.355
    1GLY      C 1513   2.831   2.948   2.214
    1GLY      O 1514   2.748   2.984   2.128
    1GLY     O1 1515   2.953   2.928   2.193
    1GLY     H1 1516   2.616   2.978   2.477
    1GLY     H2 1517   2.658   3.091   2.362
    1GLY    HA1 1518   2.852   2.960   2.428
    1GLY    HA2 1519   2.767   2.817   2.370
    1GLY     H3 1520   2.577   2.955   2.313
    1GLY      N 1521   2.349   2.009   2.623
    1GLY     CA 1522   2.219   2.075   2.646
    1GLY      C 1523   2.168   2.051   2.787
    1GLY      O 1524   2.251   2.015   2.873
    1GLY     O1 1525   2.046   2.071   2.808
    1GLY     H1 1526   2.383   2.022   2.524
    1GLY     H2 1527   2.423   2.044   2.688
    1GLY    HA1 1528   2.232   2.183   2.631
    1GLY    HA2 1529   2.147   2.039   2.573
    1GLY     H3 1530   2.341   1.908   2.639
    1GLY      N 1531   2.091   2.607   3.139
    1GLY     CA 1532   2.221   2.673   3.116
    1GLY      C 1533   2.272   2.649   2.974
    1GLY      O 1534   2.189   2.612   2.888
    1GLY     O1 1535   2.394   2.669   2.953
    1GLY     H1 1536   2.058   2.619   3.238
    1GLY     H2 1537   2.018   2.642   3.074
    1GLY    HA1 1538   2.208   2.780   3.131
    1GLY    HA2 1539   2.293   2.636   3.188
    1GLY     H3 1540   2.099   2.505   3.122
    1GLY      N 1541   2.503   2.392   2.876
    1GLY     CA 1542   2.373   2.326   2.899
    1GLY      C 1543   2.322   2.350   3.041
    1GLY      O 1544   2.405   2.387   3.127
    1GLY     O1 1545   2.200   2.330   3.062
    1GLY     H1 1546   2.537   2.380   2.777
    1GLY     H2 1547   2.495   2.494   2.893
    1GLY    HA1 1548   2.301   2.363   2.827
    1GLY    HA2 1549   2.386   2.219   2.884
    1GLY     H3 1550   2.576   2.357   2.941
    1GLY      N 1551   2.448   2.990   2.885
    1GLY     CA 1552   2.577   2.924   2.862
    1GLY      C 1553   2.629   2.948   2.721
    1GLY      O 1554   2.546   2.984   2.635
    1GLY     O1 1555   2.750   2.928   2.700
    1GLY     H1 1556   2.414   2.978   2.984
    1GLY     H2 1557   2.456   3.091   2.869
    1GLY    HA1 1558   2.650   2.960   2.935
    1GLY    HA2 1559   2.565   2.817   2.877
    1GLY     H3 1560   2.374   2.955   2.820
    1GLY      N 1561   2.147   2.009   3.130
    1GLY     CA 1562   2.017   2.075   3.153
    1GLY      C 1563   1.966   2.051   3.294
    1GLY      O 1564   2.049   2.015   3.380
    1GLY     O1 1565   1.844   2.071   3.315
    1GLY     H1 1566   2.180   2.022   3.031
    1GLY     H2 1567   2.220   2.044   3.195
    1GLY    HA1 1568   2.030   2.183   3.138
    1GLY    HA2 1569   1.945   2.039   3.080
    1GLY     H3 1570   2.139   1.908   3.146
    1GLY      N 1571   1.889   2.607   3.646
    1GLY     CA 1572   2.019   2.673   3.623
    1GLY      C 1573   2.070   2.649   3.481
    1GLY      O 1574   1.987   2.612   3.395
    1GLY     O1 1575   2.192   2.669   3.460
    1GLY     H1 1576   1.855   2.619   3.745
    1GLY     H2 1577   1.815   2.642   3.581
    1GLY    HA1 1578   2.006   2.780   3.638
    1GLY    HA2 1579   2.091   2.636   3.695
    1GLY     H3 1580   1.897   2.505   3.629
    1GLY      N 1581   2.300   2.392   3.383
    1GLY     CA 1582   2.171   2.326   3.406
    1GLY      C 1583   2.119   2.350   3.548
    1GLY      O 1584   2.202   2.387   3.634
    1GLY     O1 1585   1.998   2.330   3.569
    1GLY     H1 1586   2.334   2.380   3.284
    1GLY     H2 1587   2.292   2.494   3.400
    1GLY    HA1 1588   2.098   2.363   3.334
    1GLY    HA2 1589   2.183   2.219   3.391
    1GLY     H3 1590   2.374   2.357   3.448
    1GLY      N 1591   2.245   2.990   3.392
    1GLY     CA 1592   2.375   2.924   3.369
    1GLY      C 1593   2.426   2.948   3.227
    1GLY      O 1594   2.343   2.984   3.142
    1GLY     O1 1595   2.548   2.928   3.207
    1GLY     H1 1596   2.211   2.978   3.491
    1GLY     H2 1597   2.253   3.091   3.376
    1GLY    HA1 1598   2.447   2.960   3.442
    1GLY    HA2 1599   2.362   2.817   3.384
    1GLY     H3 1600   2.172   2.955   3.327
    1GLY      N 1601   1.944   2.009   3.637
    1GLY     CA 1602   1.814   2.075   3.660
    1GLY      C 1603   1.763   2.051   3.801
    1GLY      O 1604   1.846   2.015   3.887
    1GLY     O1 1605   1.641   2.071   3.822
    1GLY     H1 1606   1.978   2.022   3.538
    1GLY     H2 1607   2.017   2.044   3.702
    1GLY    HA1 1608   1.827   2.183   3.645
    1GLY    HA2 1609   1.742   2.039   3.587
    1GLY     H3 1610   1.936   1.908   3.653
    1GLY      N 1611   1.686   2.607   4.153
    1GLY     CA 1612   1.816   2.673   4.130
    1GLY      C 1613   1.867   2.649   3.988
    1GLY      O 1614   1.784   2.612   3.902
    1GLY     O1 1615   1.989   2.669   3.967
    1GLY     H1 1616   1.652   2.619   4.252
    1GLY     H2 1617   1.613   2.642   4.088
    1GLY    HA1 1618   1.803   2.780   4.145
    1GLY    HA2 1619   1.888   2.636   4.202
    1GLY     H3 1620   1.694   2.505   4.136
    1GLY      N 1621   2.098   2.392   3.890
    1GLY     CA 1622   1.968   2.326   3.913
    1GLY      C 1623   1.917   2.350   4.055
    1GLY      O 1624   2.000   2.387   4.141
    1GLY     O1 1625   1.795   2.330   4.076
    1GLY     H1 1626   2.132   2.380   3.791
    1GLY     H2 1627   2.090   2.494   3.907
    1GLY    HA1 1628   1.896   2.363   3.840
    1GLY    HA2 1629   1.981   2.219   3.898
    1GLY     H3 1630   2.171   2.357   3.955
    1GLY      N 1631   2.042   2.990   3.899
    1GLY     CA 1632   2.172   2.924   3.876
    1GLY      C 1633   2.224   2.948   3.734
    1GLY      O 1634   2.140   2.984   3.649
    1GLY     O1 1635   2.345   2.928   3.714
    1GLY     H1 1636   2.009   2.978   3.998
    1GLY     H2 1637   2.050   3.091   3.883
    1GLY    HA1 1638   2.244   2.960   3.949
    1GLY    HA2 1639   2.160   2.817   3.891
    1GLY     H3 1640   1.969   2.955   3.834
    1GLY      N 1641   2.957   3.205   1.102
    1GLY     CA 1642   2.827   3.270   1.125
    1GLY      C 1643   2.776   3.246   1.267
    1GLY      O 1644   2.859   3.210   1.352
    1GLY     O1 1645   2.654   3.266   1.287
    1GLY     H1 1646   2.991   3.217   1.003
    1GLY     H2 1647   3.030   3.240   1.167
    1GLY    HA1 1648   2.840   3.378   1.110
    1GLY    HA2 1649   2.755   3.234   1.052
    1GLY     H3 1650   2.949   3.103   1.118
    1GLY      N 1651   2.699   3.802   1.618
    1GLY     CA 1652   2.829   3.868   1.595
    1GLY      C 1653   2.880   3.844   1.453
    1GLY      O 1654   2.797   3.808   1.367
    1GLY     O1 1655   3.002   3.864   1.432
    1GLY     H1 1656   2.665   3.814   1.717
    1GLY     H2 1657   2.626   3.837   1.553
    1GLY    HA1 1658   2.816   3.975   1.610
    1GLY    HA2 1659   2.901   3.831   1.667
    1GLY     H3 1660   2.707   3.701   1.601
    1GLY      N 1661   3.111   3.587   1.355
    1GLY     CA 1662   2.981   3.522   1.378
    1GLY      C 1663   2.930   3.546   1.520
    1GLY      O 1664   3.013   3.582   1.606
    1GLY     O1 1665   2.808   3.526   1.541
    1GLY     H1 1666   3.144   3.575   1.256
    1GLY     H2 1667   3.103   3.689   1.372
    1GLY    HA1 1668   2.909   3.558   1.306
    1GLY    HA2 1669   2.994   3.414   1.363
    1GLY     H3 1670   3.184   3.552   1.420
    1GLY      N 1671   2.754   3.205   1.609
    1GLY     CA 1672   2.625   3.270   1.632
    1GLY      C 1673   2.573   3.246   1.773
    1GLY      O 1674   2.656   3.210   1.859
    1GLY     O1 1675   2.452   3.266   1.794
    1GLY     H1 1676   2.788   3.217   1.510
    1GLY     H2 1677   2.828   3.240   1.674
    1GLY    HA1 1678   2.637   3.378   1.617
    1GLY    HA2 1679   2.552   3.234   1.559
    1GLY     H3 1680   2.746   3.103   1.625
    1GLY      N 1681   2.496   3.802   2.125
    1GLY     CA 1682   2.626   3.868   2.102
    1GLY      C 1683   2.678   3.844   1.960
    1GLY      O 1684   2.594   3.808   1.874
    1GLY     O1 1685   2.799   3.864   1.939
    1GLY     H1 1686   2.463   3.814   2.224
    1GLY     H2 1687   2.423   3.837   2.060
    1GLY    HA1 1688   2.614   3.975   2.117
    1GLY    HA2 1689   2.698   3.831   2.174
    1GLY     H3 1690   2.504   3.701   2.108
    1GLY      N 1691   2.908   3.587   1.862
    1GLY     CA 1692   2.778   3.522   1.885
    1GLY      C 1693   2.727   3.546   2.027
    1GLY      O 1694   2.810   3.582   2.113
    1GLY     O1 1695   2.605   3.526   2.048
    1GLY     H1 1696   2.942   3.575   1.763
    1GLY     H2 1697   2.900   3.689   1.879
    1GLY    HA1 1698   2.706   3.558   1.813
    1GLY    HA2 1699   2.791   3.414   1.870
    1GLY     H3 1700   2.981   3.552   1.927
    1GLY      N 1701   2.552   3.205   2.116
    1GLY     CA 1702   2.422   3.270   2.139
    1GLY      C 1703   2.371   3.246   2.280
    1GLY      O 1704   2.454   3.210   2.366
    1GLY     O1 1705   2.249   3.266   2.301
    1GLY     H1 1706   2.586   3.217   2.017
    1GLY     H2 1707   2.625   3.240   2.181
    1GLY    HA1 1708   2.435   3.378   2.124
    1GLY    HA2 1709   2.350   3.234   2.066
    1GLY     H3 1710   2.544   3.103   2.132
    1GLY      N 1711   2.294   3.802   2.632
    1GLY     CA 1712   2.424   3.868   2.609
    1GLY      C 1713   2.475   3.844   2.467
    1GLY      O 1714   2.392   3.808   2.381
    1GLY     O1 1715   2.597   3.864   2.446
    1GLY     H1 1716   2.260   3.814   2.731
    1GLY     H2 1717   2.221   3.837   2.567
    1GLY    HA1 1718   2.411   3.975   2.624
    1GLY    HA2 1719   2.496   3.831   2.681
    1GLY     H3 1720   2.302   3.701   2.615
    1GLY      N 1721   2.706   3.587   2.369
    1GLY     CA 1722   2.576   3.522   2.392
    1GLY      C 1723   2.524   3.546   2.534
    1GLY      O 1724   2.608   3.582   2.620
    1GLY     O1 1725   2.403   3.526   2.555
    1GLY     H1 1726   2.739   3.575   2.270
    1GLY     H2 1727   2.698   3.689   2.386
    1GLY    HA1 1728   2.504   3.558   2.320
    1GLY    HA2 1729   2.588   3.414   2.377
    1GLY     H3 1730   2.779   3.552   2.434
    1GLY      N 1731   2.650   4.185   2.378
    1GLY     CA 1732   2.780   4.119   2.355
    1GLY      C 1733   2.831   4.143   2.214
    1GLY      O 1734   2.748   4.179   2.128
    1GLY     O1 1735   2.953   4.123   2.193
    1GLY     H1 1736   2.616   4.173   2.477
    1GLY     H2 1737   2.658   4.286   2.362
    1GLY    HA1 1738   2.852   4.156   2.428
    1GLY    HA2 1739   2.767   4.012   2.370
    1GLY     H3 1740   2.577   4.150   2.313
    1GLY      N 1741   2.349   3.205   2.623
    1GLY     CA 1742   2.219   3.270   2.646
    1GLY      C 1743   2.168   3.246   2.787
    1GLY      O 1744   2.251   3.210   2.873
    1GLY     O1 1745   2.046   3.266   2.808
    1GLY     H1 1746   2.383   3.217   2.524
    1GLY     H2 1747   2.423   3.240   2.688
    1GLY    HA1 1748   2.232   3.378   2.631
    1GLY    HA2 1749   2.147   3.234   2.573
    1GLY     H3 1750   2.341   3.103   2.639
    1GLY      N 1751   2.091   3.802   3.139
    1GLY     CA 1752   2.221   3.868   3.116
    1GLY      C 1753   2.272   3.844   2.974
    1GLY      O 1754   2.189   3.808   2.888
    1GLY     O1 1755   2.394   3.864   2.953
    1GLY     H1 1756   2.058   3.814   3.238
    1GLY     H2 1757   2.018   3.837   3.074
    1GLY    HA1 1758   2.208   3.975   3.131
    1GLY    HA2 1759   2.293   3.831   3.188
    1GLY     H3 1760   2.099   3.701   3.122
    1GLY      N 1761   2.503   3.587   2.876
    1GLY     CA 1762   2.373   3.522   2.899
    1GLY      C 1763   2.322   3.546   3.041
    1GLY      O 1764   2.405   3.582   3.127
    1GLY     O1 1765   2.200   3.526   3.062
    1GLY     H1 1766   2.537   3.575   2.777
    1GLY     H2 1767   2.495   3.689   2.893
    1GLY    HA1 1768   2.301   3.558   2.827
    1GLY    HA2 1769   2.386   3.414   2.884
    1GLY     H3 1770   2.576   3.552   2.941
    1GLY      N 1771   2.448   4.185   2.885
    1GLY     CA 1772   2.577   4.119   2.862
    1GLY      C 1773   2.629   4.143   2.721
    1GLY      O 1774   2.546   4.179   2.635
    1GLY     O1 1775   2.750   4.123   2.700
    1GLY     H1 1776   2.414   4.173   2.984
    1GLY     H2 1777   2.456   4.286   2.869
    1GLY    HA1 1778   2.650   4.156   2.935
    1GLY    HA2 1779   2.565   4.012   2.877
    1GLY     H3 1780   2.374   4.150   2.820
    1GLY      N 1781   2.147   3.205   3.130
    1GLY     CA 1782   2.017   3.270   3.153
    1GLY      C 1783   1.966   3.246   3.294
    1GLY      O 1784   2.049   3.210   3.380
    1GLY     O1 1785   1.844   3.266   3.315
    1GLY     H1 1786   2.180   3.217   3.031
    1GLY     H2 1787   2.220   3.240   3.195
    1GLY    HA1 1788   2.030   3.378   3.138
    1GLY    HA2 1789   1.945   3.234   3.080
    1GLY     H3 1790   2.139   3.103   3.146
    1GLY      N 1791   2.300   3.587   3.383
    1GLY     CA 1792   2.171   3.522   3.406
    1GLY      C 1793   2.119   3.546   3.548
    1GLY      O 1794   2.202   3.582   3.634
    1GLY     O1 1795   1.998   3.526   3.569
    1GLY     H1 1796   2.334   3.575   3.284
    1GLY     H2 1797   2.292   3.689   3.400
    1GLY    HA1 1798   2.098   3.558   3.334
    1GLY    HA2 1799   2.183   3.414   3.391
    1GLY     H3 1800   2.374   3.552   3.448
    1GLY      N 1801   1.944   3.205   3.637
    1GLY     CA 1802   1.814   3.270   3.660
    1GLY      C 1803   1.763   3.246   3.801
    1GLY      O 1804   1.846   3.210   3.887
    1GLY     O1 1805   1.641   3.266   3.822
    1GLY     H1 1806   1.978   3.217   3.538
    1GLY     H2 1807   2.017   3.240   3.702
    1GLY    HA1 1808   1.827   3.378   3.645
    1GLY    HA2 1809   1.742   3.234   3.587
    1GLY     H3 1810   1.936   3.103   3.653
    1GLY      N 1811   3.209   1.412   1.618
    1GLY     CA 1812   3.339   1.478   1.595
    1GLY      C 1813   3.390   1.454   1.453
    1GLY      O 1814   3.307   1.417   1.367
    1GLY     O1 1815   3.512   1.474   1.432
    1GLY     H1 1816   3.175   1.424   1.717
    1GLY     H2 1817   3.136   1.447   1.553
    1GLY    HA1 1818   3.326   1.585   1.610
    1GLY    HA2 1819   3.411   1.441   1.667
    1GLY     H3 1820   3.217   1.310   1.601
    1GLY      N 1821   3.006   1.412   2.125
    1GLY     CA 1822   3.136   1.478   2.102
    1GLY      C 1823   3.188   1.454   1.960
    1GLY      O 1824   3.104   1.417   1.874
    1GLY     O1 1825   3.309   1.474   1.939
    1GLY     H1 1826   2.973   1.424   2.224
    1GLY     H2 1827   2.933   1.447   2.060
    1GLY    HA1 1828   3.124   1.585   2.117
    1GLY    HA2 1829   3.208   1.441   2.174
    1GLY     H3 1830   3.014   1.310   2.108
    1GLY      N 1831   3.418   1.197   1.862
    1GLY     CA 1832   3.288   1.131   1.885
    1GLY      C 1833   3.237   1.155   2.027
    1GLY      O 1834   3.320   1.192   2.113
    1GLY     O1 1835   3.115   1.135   2.048
    1GLY     H1 1836   3.452   1.185   1.763
    1GLY     H2 1837   3.410   1.299   1.879
    1GLY    HA1 1838   3.216   1.168   1.813
    1GLY    HA2 1839   3.301   1.024   1.870
    1GLY     H3 1840   3.491   1.162   1.927
    1GLY      N 1841   3.363   1.795   1.871
    1GLY     CA 1842   3.493   1.729   1.848
    1GLY      C 1843   3.544   1.753   1.707
    1GLY      O 1844   3.461   1.789   1.621
    1GLY     O1 1845   3.666   1.733   1.686
    1GLY     H1 1846   3.329   1.782   1.970
    1GLY     H2 1847   3.371   1.896   1.855
    1GLY    HA1 1848   3.565   1.765   1.921
    1GLY    HA2 1849   3.480   1.621   1.863
    1GLY     H3 1850   3.289   1.760   1.806
    1GLY      N 1851   3.062   0.814   2.116
    1GLY     CA 1852   2.932   0.880   2.139
    1GLY      C 1853   2.881   0.856   2.280
    1GLY      O 1854   2.964   0.820   2.366
    1GLY     O1 1855   2.759   0.876   2.301
    1GLY     H1 1856   3.096   0.826   2.017
    1GLY     H2 1857   3.135   0.849   2.181
    1GLY    HA1 1858   2.945   0.987   2.124
    1GLY    HA2 1859   2.860   0.844   2.066
    1GLY     H3 1860   3.054   0.713   2.132
    1GLY      N 1861   2.804   1.412   2.632
    1GLY     CA 1862   2.934   1.478   2.609
    1GLY      C 1863   2.985   1.454   2.467
    1GLY      O 1864   2.902   1.417   2.381
    1GLY     O1 1865   3.107   1.474   2.446
    1GLY     H1 1866   2.770   1.424   2.731
    1GLY     H2 1867   2.731   1.447   2.567
    1GLY    HA1 1868   2.921   1.585   2.624
    1GLY    HA2 1869   3.006   1.441   2.681
    1GLY     H3 1870   2.812   1.310   2.615
    1GLY      N 1871   3.216   1.197   2.369
    1GLY     CA 1872   3.086   1.131   2.392
    1GLY      C 1873   3.034   1.155   2.534
    1GLY      O 1874   3.117   1.192   2.620
    1GLY     O1 1875   2.913   1.135   2.555
    1GLY     H1 1876   3.249   1.185   2.270
    1GLY     H2 1877   3.208   1.299   2.386
    1GLY    HA1 1878   3.014   1.168   2.320
    1GLY    HA2 1879   3.098   1.024   2.377
    1GLY     H3 1880   3.289   1.162   2.434
    1GLY      N 1881   3.160   1.795   2.378
    1GLY     CA 1882   3.290   1.729   2.355
    1GLY      C 1883   3.341   1.753   2.214
    1GLY      O 1884   3.258   1.789   2.128
    1GLY     O1 1885   3.463   1.733   2.193
    1GLY     H1 1886   3.126   1.782   2.477
    1GLY     H2 1887   3.168   1.896   2.362
    1GLY    HA1 1888   3.362   1.765   2.428
    1GLY    HA2 1889   3.277   1.621   2.370
    1GLY     H3 1890   3.087   1.760   2.313
    1GLY      N 1891   2.859   0.814   2.623
    1GLY     CA 1892   2.729   0.880   2.646
    1GLY      C 1893   2.678   0.856   2.787
    1GLY      O 1894   2.761   0.820   2.873
    1GLY     O1 1895   2.556   0.876   2.808
    1GLY     H1 1896   2.893   0.826   2.524
    1GLY     H2 1897   2.933   0.849   2.688
    1GLY    HA1 1898   2.742   0.987   2.631
    1GLY    HA2 1899   2.657   0.844   2.573
    1GLY     H3 1900   2.851   0.713   2.639
    1GLY      N 1901   2.601   1.412   3.139
    1GLY     CA 1902   2.731   1.478   3.116
    1GLY      C 1903   2.782   1.454   2.974
    1GLY      O 1904   2.699   1.417   2.888
    1GLY     O1 1905   2.904   1.474   2.953
    1GLY     H1 1906   2.568   1.424   3.238
    1GLY     H2 1907   2.528   1.447   3.074
    1GLY    HA1 1908   2.718   1.585   3.131
    1GLY    HA2 1909   2.803   1.441   3.188
    1GLY     H3 1910   2.609   1.310   3.122
    1GLY      N 1911   3.013   1.197   2.876
    1GLY     CA 1912   2.883   1.131   2.899
    1GLY      C 1913   2.832   1.155   3.041
    1GLY      O 1914   2.915   1.192   3.127
    1GLY     O1 1915   2.710   1.135   3.062
    1GLY     H1 1916   3.047   1.185   2.777
    1GLY     H2 1917   3.005   1.299   2.893
    1GLY    HA1 1918   2.811   1.168   2.827
    1GLY    HA2 1919   2.896   1.024   2.884
    1GLY     H3 1920   3.086   1.162   2.941
    1GLY      N 1921   2.958   1.795   2.885
    1GLY     CA 1922   3.087   1.729   2.862
    1GLY      C 1923   3.139   1.753   2.721
    1GLY      O 1924   3.056   1.789   2.635
    1GLY     O1 1925   3.260   1.733   2.700
    1GLY     H1 1926   2.924   1.782   2.984
    1GLY     H2 1927   2.966   1.896   2.869
    1GLY    HA1 1928   3.160   1.765   2.935
    1GLY    HA2 1929   3.075   1.621   2.877
    1GLY     H3 1930   2.884   1.760   2.820
    1GLY      N 1931   2.657   0.814   3.130
    1GLY     CA 1932   2.527   0.880   3.153
    1GLY      C 1933   2.476   0.856   3.294
    1GLY      O 1934   2.559   0.820   3.380
    1GLY     O1 1935   2.354   0.876   3.315
    1GLY     H1 1936   2.690   0.826   3.031
    1GLY     H2 1937   2.730   0.849   3.195
    1GLY    HA1 1938   2.540   0.987   3.138
    1GLY    HA2 1939   2.455   0.844   3.080
    1GLY     H3 1940   2.649   0.713   3.146
    1GLY      N 1941   2.399   1.412   3.646
    1GLY     CA 1942   2.529   1.478   3.623
    1GLY      C 1943   2.580   1.454   3.481
    1GLY      O 1944   2.497   1.417   3.395
    1GLY     O1 1945   2.702   1.474   3.460
    1GLY     H1 1946   2.365   1.424   3.745
    1GLY     H2 1947   2.325   1.447   3.581
    1GLY    HA1 1948   2.516   1.585   3.638
    1GLY    HA2 1949   2.601   1.441   3.695
    1GLY     H3 1950   2.407   1.310   3.629
    1GLY      N 1951   2.810   1.197   3.383
    1GLY     CA 1952   2.681   1.131   3.406
    1GLY      C 1953   2.629   1.155   3.548
    1GLY      O 1954   2.712   1.192   3.634
    1GLY     O1 1955   2.508   1.135   3.569
    1GLY     H1 1956   2.844   1.185   3.284
    1GLY     H2 1957   2.802   1.299   3.400
    1GLY    HA1 1958   2.608   1.168   3.334
    1GLY    HA2 1959   2.693   1.024   3.391
    1GLY     H3 1960   2.884   1.162   3.448
    1GLY      N 1961   2.755   1.795   3.392
    1GLY     CA 1962   2.885   1.729   3.369
    1GLY      C 1963   2.936   1.753   3.227
    1GLY      O 1964   2.853   1.789   3.142
    1GLY     O1 1965   3.058   1.733   3.207
    1GLY     H1 1966   2.721   1.782   3.491
    1GLY     H2 1967   2.763   1.896   3.376
    1GLY    HA1 1968   2.957   1.765   3.442
    1GLY    HA2 1969   2.872   1.621   3.384
    1GLY     H3 1970   2.682   1.760   3.327
    1GLY      N 1971   2.552   1.795   3.899
    1GLY     CA 1972   2.682   1.729   3.876
    1GLY      C 1973   2.734   1.753   3.734
    1GLY      O 1974   2.650   1.789   3.649
    1GLY     O1 1975   2.855   1.733   3.714
    1GLY     H1 1976   2.519   1.782   3.998
    1GLY     H2 1977   2.560   1.896   3.883
    1GLY    HA1 1978   2.754   1.765   3.949
    1GLY    HA2 1979   2.670   1.621   3.891
    1GLY     H3 1980   2.479   1.760   3.834
    1GLY      N 1981   3.412   2.607   1.111
    1GLY     CA 1982   3.541   2.673   1.088
    1GLY      C 1983   3.593   2.649   0.946
    1GLY      O 1984   3.510   2.612   0.860
    1GLY     O1 1985   3.714   2.669   0.925
    1GLY     H1 1986   3.378   2.619   1.210
    1GLY     H2 1987   3.338   2.642   1.046
    1GLY    HA1 1988   3.529   2.780   1.103
    1GLY    HA2 1989   3.614   2.636   1.160
    1GLY     H3 1990   3.420   2.505   1.094
    1GLY      N 1991   3.467   2.009   1.102
    1GLY     CA 1992   3.337   2.075   1.125
    1GLY      C 1993   3.286   2.051   1.267
    1GLY      O 1994   3.369   2.015   1.352
    1GLY     O1 1995   3.164   2.071   1.287
    1GLY     H1 1996   3.501   2.022   1.003
    1GLY     H2 1997   3.540   2.044   1.167
    1GLY    HA1 1998   3.350   2.183   1.110
    1GLY    HA2 1999   3.265   2.039   1.052
    1GLY     H3 2000   3.459   1.908   1.118
    1GLY      N 2001   3.209   2.607   1.618
    1GLY     CA 2002   3.339   2.673   1.595
    1GLY      C 2003   3.390   2.649   1.453
    1GLY      O 2004   3.307   2.612   1.367
    1GLY     O1 2005   3.512   2.669   1.432
    1GLY     H1 2006   3.175   2.619   1.717
    1GLY     H2 2007   3.136   2.642   1.553
    1GLY    HA1 2008   3.326   2.780   1.610
    1GLY    HA2 2009   3.411   2.636   1.667
    1GLY     H3 2010   3.217   2.505   1.601
    1GLY      N 2011   3.621   2.392   1.355
    1GLY     CA 2012   3.491   2.326   1.378
    1GLY      C 2013   3.440   2.350   1.520
    1GLY      O 2014   3.523   2.387   1.606
    1GLY     O1 2015   3.318   2.330   1.541
    1GLY     H1 2016   3.654   2.380   1.256
    1GLY     H2 2017   3.613   2.494   1.372
    1GLY    HA1 2018   3.419   2.363   1.306
    1GLY    HA2 2019   3.504   2.219   1.363
    1GLY     H3 2020   3.694   2.357   1.420
    1GLY      N 2021   3.565   2.990   1.364
    1GLY     CA 2022   3.695   2.924   1.341
    1GLY      C 2023   3.746   2.948   1.200
    1GLY      O 2024   3.663   2.984   1.114
    1GLY     O1 2025   3.868   2.928   1.179
    1GLY     H1 2026   3.532   2.978   1.463
    1GLY     H2 2027   3.573   3.091   1.348
    1GLY    HA1 2028   3.767   2.960   1.414
    1GLY    HA2 2029   3.682   2.817   1.356
    1GLY     H3 2030   3.492   2.955   1.299
    1GLY      N 2031   3.264   2.009   1.609
    1GLY     CA 2032   3.135   2.075   1.632
    1GLY      C 2033   3.083   2.051   1.773
    1GLY      O 2034   3.166   2.015   1.859
    1GLY     O1 2035   2.962   2.071   1.794
    1GLY     H1 2036   3.298   2.022   1.510
    1GLY     H2 2037   3.338   2.044   1.674
    1GLY    HA1 2038   3.147   2.183   1.617
    1GLY    HA2 2039   3.062   2.039   1.559
    1GLY     H3 2040   3.256   1.908   1.625
    1GLY      N 2041   3.006   2.607   2.125
    1GLY     CA 2042   3.136   2.673   2.102
    1GLY      C 2043   3.188   2.649   1.960
    1GLY      O 2044   3.104   2.612   1.874
    1GLY     O1 2045   3.309   2.669   1.939
    1GLY     H1 2046   2.973   2.619   2.224
    1GLY     H2 2047   2.933   2.642   2.060
    1GLY    HA1 2048   3.124   2.780   2.117
    1GLY    HA2 2049   3.208   2.636   2.174
    1GLY     H3 2050   3.014   2.505   2.108
    1GLY      N 2051   3.418   2.392   1.862
    1GLY     CA 2052   3.288   2.326   1.885
    1GLY      C 2053   3.237   2.350   2.027
    1GLY      O 2054   3.320   2.387   2.113
    1GLY     O1 2055   3.115   2.330   2.048
    1GLY     H1 2056   3.452   2.380   1.763
    1GLY     H2 2057   3.410   2.494   1.879
    1GLY    HA1 2058   3.216   2.363   1.813
    1GLY    HA2 2059   3.301   2.219   1.870
    1GLY     H3 2060   3.491   2.357   1.927
    1GLY      N 2061   3.363   2.990   1.871
    1GLY     CA 2062   3.493   2.924   1.848
    1GLY      C 2063   3.544   2.948   1.707
    1GLY      O 2064   3.461   2.984   1.621
    1GLY     O1 2065   3.666   2.928   1.686
    1GLY     H1 2066   3.329   2.978   1.970
    1GLY     H2 2067   3.371   3.091   1.855
    1GLY    HA1 2068   3.565   2.960   1.921
    1GLY    HA2 2069   3.480   2.817   1.863
    1GLY     H3 2070   3.289   2.955   1.806
    1GLY      N 2071   3.062   2.009   2.116
    1GLY     CA 2072   2.932   2.075   2.139
    1GLY      C 2073   2.881   2.051   2.280
    1GLY      O 2074   2.964   2.015   2.366
    1GLY     O1 2075   2.759   2.071   2.301
    1GLY     H1 2076   3.096   2.022   2.017
    1GLY     H2 2077   3.135   2.044   2.181
    1GLY    HA1 2078   2.945   2.183   2.124
    1GLY    HA2 2079   2.860   2.039   2.066
    1GLY     H3 2080   3.054   1.908   2.132
    1GLY      N 2081   2.804   2.607   2.632
    1GLY     CA 2082   2.934   2.673   2.609
    1GLY      C 2083   2.985   2.649   2.467
    1GLY      O 2084   2.902   2.612   2.381
    1GLY     O1 2085   3.107   2.669   2.446
    1GLY     H1 2086   2.770   2.619   2.731
    1GLY     H2 2087   2.731   2.642   2.567
    1GLY    HA1 2088   2.921   2.780   2.624
    1GLY    HA2 2089   3.006   2.636   2.681
    1GLY     H3 2090   2.812   2.505   2.615
    1GLY      N 2091   3.216   2.392   2.369
    1GLY     CA 2092   3.086   2.326   2.392
    1GLY      C 2093   3.034   2.350   2.534
    1GLY      O 2094   3.117   2.387   2.620
    1GLY     O1 2095   2.913   2.330   2.555
    1GLY     H1 2096   3.249   2.380   2.270
    1GLY     H2 2097   3.208   2.494   2.386
    1GLY    HA1 2098   3.014   2.363   2.320
    1GLY    HA2 2099   3.098   2.219   2.377
    1GLY     H3 2100   3.289   2.357   2.434
    1GLY      N 2101   3.160   2.990   2.378
    1GLY     CA 2102   3.290   2.924   2.355
    1GLY      C 2103   3.341   2.948   2.214
    1GLY      O 2104   3.258   2.984   2.128
    1GLY     O1 2105   3.463   2.928   2.193
    1GLY     H1 2106   3.126   2.978   2.477
    1GLY     H2 2107   3.168   3.091   2.362
    1GLY    HA1 2108   3.362   2.960   2.428
    1GLY    HA2 2109   3.277   2.817   2.370
    1GLY     H3 2110   3.087   2.955   2.313
    1GLY      N 2111   2.859   2.009   2.623
    1GLY     CA 2112   2.729   2.075   2.646
    1GLY      C 2113   2.678   2.051   2.787
    1GLY      O 2114   2.761   2.015   2.873
    1GLY     O1 2115   2.556   2.071   2.808
    1GLY     H1 2116   2.893   2.022   2.524
    1GLY     H2 2117   2.933   2.044   2.688
    1GLY    HA1 2118   2.742   2.183   2.631
    1GLY    HA2 2119   2.657   2.039   2.573
    1GLY     H3 2120   2.851   1.908   2.639
    1GLY      N 2121   2.601   2.607   3.139
    1GLY     CA 2122   2.731   2.673   3.116
    1GLY      C 2123   2.782   2.649   2.974
    1GLY      O 2124   2.699   2.612   2.888
    1GLY     O1 2125   2.904   2.669   2.953
    1GLY     H1 2126   2.568   2.619   3.238
    1GLY     H2 2127   2.528   2.642   3.074
    1GLY    HA1 2128   2.718   2.780   3.131
    1GLY    HA2 2129   2.803   2.636   3.188
    1GLY     H3 2130   2.609   2.505   3.122
    1GLY      N 2131   3.013   2.392   2.876
    1GLY     CA 2132   2.883   2.326   2.899
    1GLY      C 2133   2.832   2.350   3.041
    1GLY      O 2134   2.915   2.387   3.127
    1GLY     O1 2135   2.710   2.330   3.062
    1GLY     H1 2136   3.047   2.380   2.777
    1GLY     H2 2137   3.005   2.494   2.893
    1GLY    HA1 2138   2.811   2.363   2.827
    1GLY    HA2 2139   2.896   2.219   2.884
    1GLY     H3 2140   3.086   2.357   2.941
    1GLY      N 2141   2.958   2.990   2.885
    1GLY     CA 2142   3.087   2.924   2.862
    1GLY      C 2143   3.139   2.948   2.721
    1GLY      O 2144   3.056   2.984   2.635
    1GLY     O1 2145   3.260   2.928   2.700
    1GLY     H1 2146   2.924   2.978   2.984
    1GLY     H2 2147   2.966   3.091   2.869
    1GLY    HA1 2148   3.160   2.960   2.935
    1GLY    HA2 2149   3.075   2.817   2.877
    1GLY     H3 2150   2.884   2.955   2.820
    1GLY      N 2151   2.657   2.009   3.130
    1GLY     CA 2152   2.527   2.075   3.153
    1GLY      C 2153   2.476   2.051   3.294
    1GLY      O 2154   2.559   2.015   3.380
    1GLY     O1 2155   2.354   2.071   3.315
    1GLY     H1 2156   2.690   2.022   3.031
    1GLY     H2 2157   2.730   2.044   3.195
    1GLY    HA1 2158   2.540   2.183   3.138
    1GLY    HA2 2159   2.455   2.039   3.080
    1GLY     H3 2160   2.649   1.908   3.146
    1GLY      N 2161   2.399   2.607   3.646
    1GLY     CA 2162   2.529   2.673   3.623
    1GLY      C 2163   2.580   2.649   3.481
    1GLY      O 2164   2.497   2.612   3.395
    1GLY     O1 2165   2.702   2.669   3.460
    1GLY     H1 2166   2.365   2.619   3.745
    1GLY     H2 2167   2.325   2.642   3.581
    1GLY    HA1 2168   2.516   2.780   3.638
    1GLY    HA2 2169   2.601   2.636   3.695
    1GLY     H3 2170   2.407   2.505   3.629
    1GLY      N 2171   2.810   2.392   3.383
    1GLY     CA 2172   2.681   2.326   3.406
    1GLY      C 2173   2.629   2.350   3.548
    1GLY      O 2174   2.712   2.387   3.634
    1GLY     O1 2175   2.508   2.330   3.569
    1GLY     H1 2176   2.844   2.380   3.284
    1GLY     H2 2177   2.802   2.494   3.400
    1GLY    HA1 2178   2.608   2.363   3.334
    1GLY    HA2 2179   2.693   2.219   3.391
    1GLY     H3 2180   2.884   2.357   3.448
    1GLY      N 2181   2.755   2.990   3.392
    1GLY     CA 2182   2.885   2.924   3.369
    1GLY      C 2183   2.936   2.948   3.227
    1GLY      O 2184   2.853   2.984   3.142
    1GLY     O1 2185   3.058   2.928   3.207
    1GLY     H1 2186   2.721   2.978   3.491
    1GLY     H2 2187   2.763   3.091   3.376
    1GLY    HA1 2188   2.957   2.960   3.442
    1GLY    HA2 2189   2.872   2.817   3.384
    1GLY     H3 2190   2.682   2.955   3.327
    1GLY      N 2191   2.454   2.009   3.637
    1GLY     CA 2192   2.324   2.075   3.660
    1GLY      C 2193   2.273   2.051   3.801
    1GLY      O 2194   2.356   2.015   3.887
    1GLY     O1 2195   2.151   2.071   3.822
    1GLY     H1 2196   2.488   2.022   3.538
    1GLY     H2 2197   2.527   2.044   3.702
    1GLY    HA1 2198   2.337   2.183   3.645
    1GLY    HA2 2199   2.252   2.039   3.587
    1GLY     H3 2200   2.446   1.908   3.653
    1GLY      N 2201   2.196   2.607   4.153
    1GLY     CA 2202   2.326   2.673   4.130
    1GLY      C 2203   2.377   2.649   3.988
    1GLY      O 2204   2.294   2.612   3.902
    1GLY     O1 2205   2.499   2.669   3.967
    1GLY     H1 2206   2.162   2.619   4.252
    1GLY     H2 2207   2.123   2.642   4.088
    1GLY    HA1 2208   2.313   2.780   4.145
    1GLY    HA2 2209   2.398   2.636   4.202
    1GLY     H3 2210   2.204   2.505   4.136
    1GLY      N 2211   2.608   2.392   3.890
    1GLY     CA 2212   2.478   2.326   3.913
    1GLY      C 2213   2.427   2.350   4.055
    1GLY      O 2214   2.510   2.387   4.141
    1GLY     O1 2215   2.305   2.330   4.076
    1GLY     H1 2216   2.642   2.380   3.791
    1GLY     H2 2217   2.600   2.494   3.907
    1GLY    HA1 2218   2.406   2.363   3.840
    1GLY    HA2 2219   2.491   2.219   3.898
    1GLY     H3 2220   2.681   2.357   3.955
    1GLY      N 2221   2.552   2.990   3.899
    1GLY     CA 2222   2.682   2.924   3.876
    1GLY      C 2223   2.734   2.948   3.734
    1GLY      O 2224   2.650   2.984   3.649
    1GLY     O1 2225   2.855   2.928   3.714
    1GLY     H1 2226   2.519   2.978   3.998
    1GLY     H2 2227   2.560   3.091   3.883
    1GLY    HA1 2228   2.754   2.960   3.949
    1GLY    HA2 2229   2.670   2.817   3.891
    1GLY     H3 2230   2.479   2.955   3.834
    1GLY      N 2231   3.467   3.205   1.102
    1GLY     CA 2232   3.337   3.270   1.125
    1GLY      C 2233   3.286   3.246   1.267
    1GLY      O 2234   3.369   3.210   1.352
    1GLY     O1 2235   3.164   3.266   1.287
    1GLY     H1 2236   3.501   3.217   1.003
    1GLY     H2 2237   3.540   3.240   1.167
    1GLY    HA1 2238   3.350   3.378   1.110
    1GLY    HA2 2239   3.265   3.234   1.052
    1GLY     H3 2240   3.459   3.103   1.118
    1GLY      N 2241   3.264   3.205   1.609
    1GLY     CA 2242   3.135   3.270   1.632
    1GLY      C 2243   3.083   3.246   1.773
    1GLY      O 2244   3.166   3.210   1.859
    1GLY     O1 2245   2.962   3.266   1.794
    1GLY     H1 2246   3.298   3.217   1.510
    1GLY     H2 2247   3.338   3.240   1.674
    1GLY    HA1 2248   3.147   3.378   1.617
    1GLY    HA2 2249   3.062   3.234   1.559
    1GLY     H3 2250   3.256   3.103   1.625
    1GLY      N 2251   3.006   3.802   2.125
    1GLY     CA 2252   3.136   3.868   2.102
    1GLY      C 2253   3.188   3.844   1.960
    1GLY      O 2254   3.104   3.808   1.874
    1GLY     O1 2255   3.309   3.864   1.939
    1GLY     H1 2256   2.973   3.814   2.224
    1GLY     H2 2257   2.933   3.837   2.060
    1GLY    HA1 2258   3.124   3.975   2.117
    1GLY    HA2 2259   3.208   3.831   2.174
    1GLY     H3 2260   3.014   3.701   2.108
    1GLY      N 2261   3.418   3.587   1.862
    1GLY     CA 2262   3.288   3.522   1.885
    1GLY      C 2263   3.237   3.546   2.027
    1GLY      O 2264   3.320   3.582   2.113
    1GLY     O1 2265   3.115   3.526   2.048
    1GLY     H1 2266   3.452   3.575   1.763
    1GLY     H2 2267   3.410   3.689   1.879
    1GLY    HA1 2268   3.216   3.558   1.813
    1GLY    HA2 2269   3.301   3.414   1.870
    1GLY     H3 2270   3.491   3.552   1.927
    1GLY      N 2271   3.062   3.205   2.116
    1GLY     CA 2272   2.932   3.270   2.139
    1GLY      C 2273   2.881   3.246   2.280
    1GLY      O 2274   2.964   3.210   2.366
    1GLY     O1 2275   2.759   3.266   2.301
    1GLY     H1 2276   3.096   3.217   2.017
    1GLY     H2 2277   3.135   3.240   2.181
    1GLY    HA1 2278   2.945   3.378   2.124
    1GLY    HA2 2279   2.860   3.234   2.066
    1GLY     H3 2280   3.054   3.103   2.132
    1GLY      N 2281   2.804   3.802   2.632
    1GLY     CA 2282   2.934   3.868   2.609
    1GLY      C 2283   2.985   3.844   2.467
    1GLY      O 2284   2.902   3.808   2.381
    1GLY     O1 2285   3.107   3.864   2.446
    1GLY     H1 2286   2.770   3.814   2.731
    1GLY     H2 2287   2.731   3.837   2.567
    1GLY    HA1 2288   2.921   3.975   2.624
    1GLY    HA2 2289   3.006   3.831   2.681
    1GLY     H3 2290   2.812   3.701   2.615
    1GLY      N 2291   3.216   3.587   2.369
    1GLY     CA 2292   3.086   3.522   2.392
    1GLY      C 2293   3.034   3.546   2.534
    1GLY      O 2294   3.117   3.582   2.620
    1GLY     O1 2295   2.913   3.526   2.555
    1GLY     H1 2296   3.249   3.575   2.270
    1GLY     H2 2297   3.208   3.689   2.386
    1GLY    HA1 2298   3.014   3.558   2.320
    1GLY    HA2 2299   3.098   3.414   2.377
    1GLY     H3 2300   3.289   3.552   2.434
    1GLY      N 2301   2.859   3.205   2.623
    1GLY     CA 2302   2.729   3.270   2.646
    1GLY      C 2303   2.678   3.246   2.787
    1GLY      O 2304   2.761   3.210   2.873
    1GLY     O1 2305   2.556   3.266   2.808
    1GLY     H1 2306   2.893   3.217   2.524
    1GLY     H2 2307   2.933   3.240   2.688
    1GLY    HA1 2308   2.742   3.378   2.631
    1GLY    HA2 2309   2.657   3.234   2.573
    1GLY     H3 2310   2.851   3.103   2.639
    1GLY      N 2311   2.601   3.802   3.139
    1GLY     CA 2312   2.731   3.868   3.116
    1GLY      C 2313   2.782   3.844   2.974
    1GLY      O 2314   2.699   3.808   2.888
    1GLY     O1 2315   2.904   3.864   2.953
    1GLY     H1 2316   2.568   3.814   3.238
    1GLY     H2 2317   2.528   3.837   3.074
    1GLY    HA1 2318   2.718   3.975   3.131
    1GLY    HA2 2319   2.803   3.831   3.188
    1GLY     H3 2320   2.609   3.701   3.122
    1GLY      N 2321   3.013   3.587   2.876
    1GLY     CA 2322   2.883   3.522   2.899
    1GLY      C 2323   2.832   3.546   3.041
    1GLY      O 2324   2.915   3.582   3.127
    1GLY     O1 2325   2.710   3.526   3.062
    1GLY     H1 2326   3.047   3.575   2.777
    1GLY     H2 2327   3.005   3.689   2.893
    1GLY    HA1 2328   2.811   3.558   2.827
    1GLY    HA2 2329   2.896   3.414   2.884
    1GLY     H3 2330   3.086   3.552   2.941
    1GLY      N 2331   2.958   4.185   2.885
    1GLY     CA 2332   3.087   4.119   2.862
    1GLY      C 2333   3.139   4.143   2.721
    1GLY      O 2334   3.056   4.179   2.635
    1GLY     O1 2335   3.260   4.123   2.700
    1GLY     H1 2336   2.924   4.173   2.984
    1GLY     H2 2337   2.966   4.286   2.869
    1GLY    HA1 2338   3.160   4.156   2.935
    1GLY    HA2 2339   3.075   4.012   2.877
    1GLY     H3 2340   2.884   4.150   2.820
    1GLY      N 2341   2.657   3.205   3.130
    1GLY     CA 2342   2.527   3.270   3.153
    1GLY      C 2343   2.476   3.246   3.294
    1GLY      O 2344   2.559   3.210   3.380
    1GLY     O1 2345   2.354   3.266   3.315
    1GLY     H1 2346   2.690   3.217   3.031
    1GLY     H2 2347   2.730   3.240   3.195
    1GLY    HA1 2348   2.540   3.378   3.138
    1GLY    HA2 2349   2.455   3.234   3.080
    1GLY     H3 2350   2.649   3.103   3.146
    1GLY      N 2351   2.399   3.802   3.646
    1GLY     CA 2352   2.529   3.868   3.623
    1GLY      C 2353   2.580   3.844   3.481
    1GLY      O 2354   2.497   3.808   3.395
    1GLY     O1 2355   2.702   3.864   3.460
    1GLY     H1 2356   2.365   3.814   3.745
    1GLY     H2 2357   2.325   3.837   3.581
    1GLY    HA1 2358   2.516   3.975   3.638
    1GLY    HA2 2359   2.601   3.831   3.695
    1GLY     H3 2360   2.407   3.701   3.629
    1GLY      N 2361   2.810   3.587   3.383
    1GLY     CA 2362   2.681   3.522   3.406
    1GLY      C 2363   2.629   3.546   3.548
    1GLY      O 2364   2.712   3.582   3.634
    1GLY     O1 2365   2.508   3.526   3.569
    1GLY     H1 2366   2.844   3.575   3.284
    1GLY     H2 2367   2.802   3.689   3.400
    1GLY    HA1 2368   2.608   3.558   3.334
    1GLY    HA2 2369   2.693   3.414   3.391
    1GLY     H3 2370   2.884   3.552   3.448
    1GLY      N 2371   2.454   3.205   3.637
    1GLY     CA 2372   2.324   3.270   3.660
    1GLY      C 2373   2.273   3.246   3.801
    1GLY      O 2374   2.356   3.210   3.887
    1GLY     O1 2375   2.151   3.266   3.822
    1GLY     H1 2376   2.488   3.217   3.538
    1GLY     H2 2377   2.527   3.240   3.702
    1GLY    HA1 2378   2.337   3.378   3.645
    1GLY    HA2 2379   2.252   3.234   3.587
    1GLY     H3 2380   2.446   3.103   3.653
    1GLY      N 2381   2.608   3.587   3.890
    1GLY     CA 2382   2.478   3.522   3.913
    1GLY      C 2383   2.427   3.546   4.055
    1GLY      O 2384   2.510   3.582   4.141
    1GLY     O1 2385   2.305   3.526   4.076
    1GLY     H1 2386   2.642   3.575   3.791
    1GLY     H2 2387   2.600   3.689   3.907
    1GLY    HA1 2388   2.406   3.558   3.840
    1GLY    HA2 2389   2.491   3.414   3.898
    1GLY     H3 2390   2.681   3.552   3.955
    1GLY      N 2391   3.516   1.412   2.125
    1GLY     CA 2392   3.646   1.478   2.102
    1GLY      C 2393   3.698   1.454   1.960
    1GLY      O 2394   3.614   1.417   1.874
    1GLY     O1 2395   3.819   1.474   1.939
    1GLY     H1 2396   3.483   1.424   2.224
    1GLY     H2 2397   3.443   1.447   2.060
    1GLY    HA1 2398   3.634   1.585   2.117
    1GLY    HA2 2399   3.718   1.441   2.174
    1GLY     H3 2400   3.524   1.310   2.108
    1GLY      N 2401   3.314   1.412   2.632
    1GLY     CA 2402   3.444   1.478   2.609
    1GLY      C 2403   3.495   1.454   2.467
    1GLY      O 2404   3.412   1.417   2.381
    1GLY     O1 2405   3.617   1.474   2.446
    1GLY     H1 2406   3.280   1.424   2.731
    1GLY     H2 2407   3.241   1.447   2.567
    1GLY    HA1 2408   3.431   1.585   2.624
    1GLY    HA2 2409   3.516   1.441   2.681
    1GLY     H3 2410   3.322   1.310   2.615
    1GLY      N 2411   3.726   1.197   2.369
    1GLY     CA 2412   3.596   1.131   2.392
    1GLY      C 2413   3.544   1.155   2.534
    1GLY      O 2414   3.627   1.192   2.620
    1GLY     O1 2415   3.423   1.135   2.555
    1GLY     H1 2416   3.759   1.185   2.270
    1GLY     H2 2417   3.718   1.299   2.386
    1GLY    HA1 2418   3.524   1.168   2.320
    1GLY    HA2 2419   3.608   1.024   2.377
    1GLY     H3 2420   3.799   1.162   2.434
    1GLY      N 2421   3.670   1.795   2.378
    1GLY     CA 2422   3.800   1.729   2.355
    1GLY      C 2423   3.851   1.753   2.214
    1GLY      O 2424   3.768   1.789   2.128
    1GLY     O1 2425   3.973   1.733   2.193
    1GLY     H1 2426   3.636   1.782   2.477
    1GLY     H2 2427   3.678   1.896   2.362
    1GLY    HA1 2428   3.872   1.765   2.428
    1GLY    HA2 2429   3.787   1.621   2.370
    1GLY     H3 2430   3.597   1.760   2.313
    1GLY      N 2431   3.369   0.814   2.623
    1GLY     CA 2432   3.239   0.880   2.646
    1GLY      C 2433   3.188   0.856   2.787
    1GLY      O 2434   3.271   0.820   2.873
    1GLY     O1 2435   3.066   0.876   2.808
    1GLY     H1 2436   3.403   0.826   2.524
    1GLY     H2 2437   3.443   0.849   2.688
    1GLY    HA1 2438   3.252   0.987   2.631
    1GLY    HA2 2439   3.167   0.844   2.573
    1GLY     H3 2440   3.361   0.713   2.639
    1GLY      N 2441   3.111   1.412   3.139
    1GLY     CA 2442   3.241   1.478   3.116
    1GLY      C 2443   3.292   1.454   2.974
    1GLY      O 2444   3.209   1.417   2.888
    1GLY     O1 2445   3.414   1.474   2.953
    1GLY     H1 2446   3.078   1.424   3.238
    1GLY     H2 2447   3.038   1.447   3.074
    1GLY    HA1 2448   3.228   1.585   3.131
    1GLY    HA2 2449   3.313   1.441   3.188
    1GLY     H3 2450   3.119   1.310   3.122
    1GLY      N 2451   3.523   1.197   2.876
    1GLY     CA 2452   3.393   1.131   2.899
    1GLY      C 2453   3.342   1.155   3.041
    1GLY      O 2454   3.425   1.192   3.127
    1GLY     O1 2455   3.220   1.135   3.062
    1GLY     H1 2456   3.557   1.185   2.777
    1GLY     H2 2457   3.515   1.299   2.893
    1GLY    HA1 2458   3.321   1.168   2.827
    1GLY    HA2 2459   3.406   1.024   2.884
    1GLY     H3 2460   3.596   1.162   2.941
    1GLY      N 2461   3.467   1.795   2.885
    1GLY     CA 2462   3.597   1.729   2.862
    1GLY      C 2463   3.649   1.753   2.721
    1GLY      O 2464   3.566   1.789   2.635
    1GLY     O1 2465   3.770   1.733   2.700
    1GLY     H1 2466   3.434   1.782   2.984
    1GLY     H2 2467   3.476   1.896   2.869
    1GLY    HA1 2468   3.670   1.765   2.935
    1GLY    HA2 2469   3.585   1.621   2.877
    1GLY     H3 2470   3.394   1.760   2.820
    1GLY      N 2471   2.909   1.412   3.646
    1GLY     CA 2472   3.038   1.478   3.623
    1GLY      C 2473   3.090   1.454   3.481
    1GLY      O 2474   3.007   1.417   3.395
    1GLY     O1 2475   3.212   1.474   3.460
    1GLY     H1 2476   2.875   1.424   3.745
    1GLY     H2 2477   2.835   1.447   3.581
    1GLY    HA1 2478   3.026   1.585   3.638
    1GLY    HA2 2479   3.111   1.441   3.695
    1GLY     H3 2480   2.917   1.310   3.629
    1GLY      N 2481   3.320   1.197   3.383
    1GLY     CA 2482   3.191   1.131   3.406
    1GLY      C 2483   3.139   1.155   3.548
    1GLY      O 2484   3.222   1.192   3.634
    1GLY     O1 2485   3.018   1.135   3.569
    1GLY     H1 2486   3.354   1.185   3.284
    1GLY     H2 2487   3.312   1.299   3.400
    1GLY    HA1 2488   3.118   1.168   3.334
    1GLY    HA2 2489   3.203   1.024   3.391
    1GLY     H3 2490   3.394   1.162   3.448
    1GLY      N 2491   3.265   1.795   3.392
    1GLY     CA 2492   3.395   1.729   3.369
    1GLY      C 2493   3.446   1.753   3.227
    1GLY      O 2494   3.363   1.789   3.142
    1GLY     O1 2495   3.568   1.733   3.207
    1GLY     H1 2496   3.231   1.782   3.491
    1GLY     H2 2497   3.273   1.896   3.376
    1GLY    HA1 2498   3.467   1.765   3.442
    1GLY    HA2 2499   3.382   1.621   3.384
    1GLY     H3 2500   3.192   1.760   3.327
    1GLY      N 2501   3.062   1.795   3.899
    1GLY     CA 2502   3.192   1.729   3.876
    1GLY      C 2503   3.244   1.753   3.734
    1GLY      O 2504   3.160   1.789   3.649
    1GLY     O1 2505   3.365   1.733   3.714
    1GLY     H1 2506   3.029   1.782   3.998
    1GLY     H2 2507   3.070   1.896   3.883
    1GLY    HA1 2508   3.264   1.765   3.949
    1GLY    HA2 2509   3.179   1.621   3.891
    1GLY     H3 2510   2.989   1.760   3.834
    1GLY      N 2511   3.719   2.607   1.618
    1GLY     CA 2512   3.849   2.673   1.595
    1GLY      C 2513   3.900   2.649   1.453
    1GLY      O 2514   3.817   2.612   1.367
    1GLY     O1 2515   4.022   2.669   1.432
    1GLY     H1 2516   3.685   2.619   1.717
    1GLY     H2 2517   3.646   2.642   1.553
    1GLY    HA1 2518   3.836   2.780   1.610
    1GLY    HA2 2519   3.921   2.636   1.667
    1GLY     H3 2520   3.727   2.505   1.601
    1GLY      N 2521   3.774   2.009   1.609
    1GLY     CA 2522   3.645   2.075   1.632
    1GLY      C 2523   3.593   2.051   1.773
    1GLY      O 2524   3.676   2.015   1.859
    1GLY     O1 2525   3.472   2.071   1.794
    1GLY     H1 2526   3.808   2.022   1.510
    1GLY     H2 2527   3.848   2.044   1.674
    1GLY    HA1 2528   3.657   2.183   1.617
    1GLY    HA2 2529   3.572   2.039   1.559
    1GLY     H3 2530   3.766   1.908   1.625
    1GLY      N 2531   3.516   2.607   2.125
    1GLY     CA 2532   3.646   2.673   2.102
    1GLY      C 2533   3.698   2.649   1.960
    1GLY      O 2534   3.614   2.612   1.874
    1GLY     O1 2535   3.819   2.669   1.939
    1GLY     H1 2536   3.483   2.619   2.224
    1GLY     H2 2537   3.443   2.642   2.060
    1GLY    HA1 2538   3.634   2.780   2.117
    1GLY    HA2 2539   3.718   2.636   2.174
    1GLY     H3 2540   3.524   2.505   2.108
    1GLY      N 2541   3.928   2.392   1.862
    1GLY     CA 2542   3.798   2.326   1.885
    1GLY      C 2543   3.747   2.350   2.027
    1GLY      O 2544   3.830   2.387   2.113
    1GLY     O1 2545   3.625   2.330   2.048
    1GLY     H1 2546   3.962   2.380   1.763
    1GLY     H2 2547   3.920   2.494   1.879
    1GLY    HA1 2548   3.726   2.363   1.813
    1GLY    HA2 2549   3.811   2.219   1.870
    1GLY     H3 2550   4.001   2.357   1.927
    1GLY      N 2551   3.873   2.990   1.871
    1GLY     CA 2552   4.003   2.924   1.848
    1GLY      C 2553   4.054   2.948   1.707
    1GLY      O 2554   3.971   2.984   1.621
    1GLY     O1 2555   4.176   2.928   1.686
    1GLY     H1 2556   3.839   2.978   1.970
    1GLY     H2 2557   3.881   3.091   1.855
    1GLY    HA1 2558   4.075   2.960   1.921
    1GLY    HA2 2559   3.990   2.817   1.863
    1GLY     H3 2560   3.799   2.955   1.806
    1GLY      N 2561   3.572   2.009   2.116
    1GLY     CA 2562   3.442   2.075   2.139
    1GLY      C 2563   3.391   2.051   2.280
    1GLY      O 2564   3.474   2.015   2.366
    1GLY     O1 2565   3.269   2.071   2.301
    1GLY     H1 2566   3.606   2.022   2.017
    1GLY     H2 2567   3.645   2.044   2.181
    1GLY    HA1 2568   3.455   2.183   2.124
    1GLY    HA2 2569   3.370   2.039   2.066
    1GLY     H3 2570   3.564   1.908   2.132
    1GLY      N 2571   3.314   2.607   2.632
    1GLY     CA 2572   3.444   2.673   2.609
    1GLY      C 2573   3.495   2.649   2.467
    1GLY      O 2574   3.412   2.612   2.381
    1GLY     O1 2575   3.617   2.669   2.446
    1GLY     H1 2576   3.280   2.619   2.731
    1GLY     H2 2577   3.241   2.642   2.567
    1GLY    HA1 2578   3.431   2.780   2.624
    1GLY    HA2 2579   3.516   2.636   2.681
    1GLY     H3 2580   3.322   2.505   2.615
    1GLY      N 2581   3.726   2.392   2.369
    1GLY     CA 2582   3.596   2.326   2.392
    1GLY      C 2583   3.544   2.350   2.534
    1GLY      O 2584   3.627   2.387   2.620
    1GLY     O1 2585   3.423   2.330   2.555
    1GLY     H1 2586   3.759   2.380   2.270
    1GLY     H2 2587   3.718   2.494   2.386
    1GLY    HA1 2588   3.524   2.363   2.320
    1GLY    HA2 2589   3.608   2.219   2.377
    1GLY     H3 2590   3.799   2.357   2.434
    1GLY      N 2591   3.670   2.990   2.378
    1GLY     CA 2592   3.800   2.924   2.355
    1GLY      C 2593   3.851   2.948   2.214
    1GLY      O 2594   3.768   2.984   2.128
    1GLY     O1 2595   3.973   2.928   2.193
    1GLY     H1 2596   3.636   2.978   2.477
    1GLY     H2 2597   3.678   3.091   2.362
    1GLY    HA1 2598   3.872   2.960   2.428
    1GLY    HA2 2599   3.787   2.817   2.370
    1GLY     H3 2600   3.597   2.955   2.313
    1GLY      N 2601   3.369   2.009   2.623
    1GLY     CA 2602   3.239   2.075   2.646
    1GLY      C 2603   3.188   2.051   2.787
    1GLY      O 2604   3.271   2.015   2.873
    1GLY     O1 2605   3.066   2.071   2.808
    1GLY     H1 2606   3.403   2.022   2.524
    1GLY     H2 2607   3.443   2.044   2.688
    1GLY    HA1 2608   3.252   2.183   2.631
    1GLY    HA2 2609   3.167   2.039   2.573
    1GLY     H3 2610   3.361   1.908   2.639
    1GLY      N 2611   3.111   2.607   3.139
    1GLY     CA 2612   3.241   2.673   3.116
    1GLY      C 2613   3.292   2.649   2.974
    1GLY      O 2614   3.209   2.612   2.888
    1GLY     O1 2615   3.414   2.669   2.953
    1GLY     H1 2616   3.078   2.619   3.238
    1GLY     H2 2617   3.038   2.642   3.074
    1GLY    HA1 2618   3.228   2.780   3.131
    1GLY    HA2 2619   3.313   2.636   3.188
    1GLY     H3 2620   3.119   2.505   3.122
    1GLY      N 2621   3.523   2.392   2.876
    1GLY     CA 2622   3.393   2.326   2.899
    1GLY      C 2623   3.342   2.350   3.041
    1GLY      O 2624   3.425   2.387   3.127
    1GLY     O1 2625   3.220   2.330   3.062
    1GLY     H1 2626   3.557   2.380   2.777
    1GLY     H2 2627   3.515   2.494   2.893
    1GLY    HA1 2628   3.321   2.363   2.827
    1GLY    HA2 2629   3.406   2.219   2.884
    1GLY     H3 2630   3.596   2.357   2.941
    1GLY      N 2631   3.467   2.990   2.885
    1GLY     CA 2632   3.597   2.924   2.862
    1GLY      C 2633   3.649   2.948   2.721
    1GLY      O 2634   3.566   2.984   2.635
    1GLY     O1 2635   3.770   2.928   2.700
    1GLY     H1 2636   3.434   2.978   2.984
    1GLY     H2 2637   3.476   3.091   2.869
    1GLY    HA1 2638   3.670   2.960   2.935
    1GLY    HA2 2639   3.585   2.817   2.877
    1GLY     H3 2640   3.394   2.955   2.820
    1GLY      N 2641   3.167   2.009   3.130
    1GLY     CA 2642   3.037   2.075   3.153
    1GLY      C 2643   2.986   2.051   3.294
    1GLY      O 2644   3.069   2.015   3.380
    1GLY     O1 2645   2.864   2.071   3.315
    1GLY     H1 2646   3.200   2.022   3.031
    1GLY     H2 2647   3.240   2.044   3.195
    1GLY    HA1 2648   3.050   2.183   3.138
    1GLY    HA2 2649   2.965   2.039   3.080
    1GLY     H3 2650   3.159   1.908   3.146
    1GLY      N 2651   2.909   2.607   3.646
    1GLY     CA 2652   3.038   2.673   3.623
    1GLY      C 2653   3.090   2.649   3.481
    1GLY      O 2654   3.007   2.612   3.395
    1GLY     O1 2655   3.212   2.669   3.460
    1GLY     H1 2656   2.875   2.619   3.745
    1GLY     H2 2657   2.835   2.642   3.581
    1GLY    HA1 2658   3.026   2.780   3.638
    1GLY    HA2 2659   3.111   2.636   3.695
    1GLY     H3 2660   2.917   2.505   3.629
    1GLY      N 2661   3.320   2.392   3.383
    1GLY     CA 2662   3.191   2.326   3.406
    1GLY      C 2663   3.139   2.350   3.548
    1GLY      O 2664   3.222   2.387   3.634
    1GLY     O1 2665   3.018   2.330   3.569
    1GLY     H1 2666   3.354   2.380   3.284
    1GLY     H2 2667   3.312   2.494   3.400
    1GLY    HA1 2668   3.118   2.363   3.334
    1GLY    HA2 2669   3.203   2.219   3.391
    1GLY     H3 2670   3.394   2.357   3.448
    1GLY      N 2671   3.265   2.990   3.392
    1GLY     CA 2672   3.395   2.924   3.369
    1GLY      C 2673   3.446   2.948   3.227
    1GLY      O 2674   3.363   2.984   3.142
    1GLY     O1 2675   3.568   2.928   3.207
    1GLY     H1 2676   3.231   2.978   3.491
    1GLY     H2 2677   3.273   3.091   3.376
    1GLY    HA1 2678   3.467   2.960   3.442
    1GLY    HA2 2679   3.382   2.817   3.384
    1GLY     H3 2680   3.192   2.955   3.327
    1GLY      N 2681   2.964   2.009   3.637
    1GLY     CA 2682   2.834   2.075   3.660
    1GLY      C 2683   2.783   2.051   3.801
    1GLY      O 2684   2.866   2.015   3.887
    1GLY     O1 2685   2.661   2.071   3.822
    1GLY     H1 2686   2.998   2.022   3.538
    1GLY     H2 2687   3.037   2.044   3.702
    1GLY    HA1 2688   2.847   2.183   3.645
    1GLY    HA2 2689   2.762   2.039   3.587
    1GLY     H3 2690   2.956   1.908   3.653
    1GLY      N 2691   2.706   2.607   4.153
    1GLY     CA 2692   2.836   2.673   4.130
    1GLY      C 2693   2.887   2.649   3.988
    1GLY      O 2694   2.804   2.612   3.902
    1GLY     O1 2695   3.009   2.669   3.967
    1GLY     H1 2696   2.672   2.619   4.252
    1GLY     H2 2697   2.633   2.642   4.088
    1GLY    HA1 2698   2.823   2.780   4.145
    1GLY    HA2 2699   2.908   2.636   4.202
    1GLY     H3 2700   2.714   2.505   4.136
    1GLY      N 2701   3.118   2.392   3.890
    1GLY     CA 2702   2.988   2.326   3.913
    1GLY      C 2703   2.937   2.350   4.055
    1GLY      O 2704   3.020   2.387   4.141
    1GLY     O1 2705   2.815   2.330   4.076
    1GLY     H1 2706   3.152   2.380   3.791
    1GLY     H2 2707   3.110   2.494   3.907
    1GLY    HA1 2708   2.916   2.363   3.840
    1GLY    HA2 2709   3.001   2.219   3.898
    1GLY     H3 2710   3.191   2.357   3.955
    1GLY      N 2711   3.062   2.990   3.899
    1GLY     CA 2712   3.192   2.924   3.876
    1GLY      C 2713   3.244   2.948   3.734
    1GLY      O 2714   3.160   2.984   3.649
    1GLY     O1 2715   3.365   2.928   3.714
    1GLY     H1 2716   3.029   2.978   3.998
    1GLY     H2 2717   3.070   3.091   3.883
    1GLY    HA1 2718   3.264   2.960   3.949
    1GLY    HA2 2719   3.179   2.817   3.891
    1GLY     H3 2720   2.989   2.955   3.834
    1GLY      N 2721   3.774   3.205   1.609
    1GLY     CA 2722   3.645   3.270   1.632
    1GLY      C 2723   3.593   3.246   1.773
    1GLY      O 2724   3.676   3.210   1.859
    1GLY     O1 2725   3.472   3.266   1.794
    1GLY     H1 2726   3.808   3.217   1.510
    1GLY     H2 2727   3.848   3.240   1.674
    1GLY    HA1 2728   3.657   3.378   1.617
    1GLY    HA2 2729   3.572   3.234   1.559
    1GLY     H3 2730   3.766   3.103   1.625
    1GLY      N 2731   3.928   3.587   1.862
    1GLY     CA 2732   3.798   3.522   1.885
    1GLY      C 2733   3.747   3.546   2.027
    1GLY      O 2734   3.830   3.582   2.113
    1GLY     O1 2735   3.625   3.526   2.048
    1GLY     H1 2736   3.962   3.575   1.763
    1GLY     H2 2737   3.920   3.689   1.879
    1GLY    HA1 2738   3.726   3.558   1.813
    1GLY    HA2 2739   3.811   3.414   1.870
    1GLY     H3 2740   4.001   3.552   1.927
    1GLY      N 2741   3.572   3.205   2.116
    1GLY     CA 2742   3.442   3.270   2.139
    1GLY      C 2743   3.391   3.246   2.280
    1GLY      O 2744   3.474   3.210   2.366
    1GLY     O1 2745   3.269   3.266   2.301
    1GLY     H1 2746   3.606   3.217   2.017
    1GLY     H2 2747   3.645   3.240   2.181
    1GLY    HA1 2748   3.455   3.378   2.124
    1GLY    HA2 2749   3.370   3.234   2.066
    1GLY     H3 2750   3.564   3.103   2.132
    1GLY      N 2751   3.314   3.802   2.632
    1GLY     CA 2752   3.444   3.868   2.609
    1GLY      C 2753   3.495   3.844   2.467
    1GLY      O 2754   3.412   3.808   2.381
    1GLY     O1 2755   3.617   3.864   2.446
    1GLY     H1 2756   3.280   3.814   2.731
    1GLY     H2 2757   3.241   3.837   2.567
    1GLY    HA1 2758   3.431   3.975   2.624
    1GLY    HA2 2759   3.516   3.831   2.681
    1GLY     H3 2760   3.322   3.701   2.615
    1GLY      N 2761   3.726   3.587   2.369
    1GLY     CA 2762   3.596   3.522   2.392
    1GLY      C 2763   3.544   3.546   2.534
    1GLY      O 2764   3.627   3.582   2.620
    1GLY     O1 2765   3.423   3.526   2.555
    1GLY     H1 2766   3.759   3.575   2.270
    1GLY     H2 2767   3.718   3.689   2.386
    1GLY    HA1 2768   3.524   3.558   2.320
    1GLY    HA2 2769   3.608   3.414   2.377
    1GLY     H3 2770   3.799   3.552   2.434
    1GLY      N 2771   3.369   3.205   2.623
    1GLY     CA 2772   3.239   3.270   2.646
    1GLY      C 2773   3.188   3.246   2.787
    1GLY      O 2774   3.271   3.210   2.873
    1GLY     O1 2775   3.066   3.266   2.808
    1GLY     H1 2776   3.403   3.217   2.524
    1GLY     H2 2777   3.443   3.240   2.688
    1GLY    HA1 2778   3.252   3.378   2.631
    1GLY    HA2 2779   3.167   3.234   2.573
    1GLY     H3 2780   3.361   3.103   2.639
    1GLY      N 2781   3.111   3.802   3.139
    1GLY     CA 2782   3.241   3.868   3.116
    1GLY      C 2783   3.292   3.844   2.974
    1GLY      O 2784   3.209   3.808   2.888
    1GLY     O1 2785   3.414   3.864   2.953
    1GLY     H1 2786   3.078   3.814   3.238
    1GLY     H2 2787   3.038   3.837   3.074
    1GLY    HA1 2788   3.228   3.975   3.131
    1GLY    HA2 2789   3.313   3.831   3.188
    1GLY     H3 2790   3.119   3.701   3.122
    1GLY      N 2791   3.523   3.587   2.876
    1GLY     CA 2792   3.393   3.522   2.899
    1GLY      C 2793   3.342   3.546   3.041
    1GLY      O 2794   3.425   3.582   3.127
    1GLY     O1 2795   3.220   3.526   3.062
    1GLY     H1 2796   3.557   3.575   2.777
    1GLY     H2 2797   3.515   3.689   2.893
    1GLY    HA1 2798   3.321   3.558   2.827
    1GLY    HA2 2799   3.406   3.414   2.884
    1GLY     H3 2800   3.596   3.552   2.941
    1GLY      N 2801   3.167   3.205   3.130
    1GLY     CA 2802   3.037   3.270   3.153
    1GLY      C 2803   2.986   3.246   3.294
    1GLY      O 2804   3.069   3.210   3.380
    1GLY     O1 2805   2.864   3.266   3.315
    1GLY     H1 2806   3.200   3.217   3.031
    1GLY     H2 2807   3.240   3.240   3.195
    1GLY    HA1 2808   3.050   3.378   3.138
    1GLY    HA2 2809   2.965   3.234   3.080
    1GLY     H3 2810   3.159   3.103   3.146
    1GLY      N 2811   3.320   3.587   3.383
    1GLY     CA 2812   3.191   3.522   3.406
    1GLY      C 2813   3.139   3.546   3.548
    1GLY      O 2814   3.222   3.582   3.634
    1GLY     O1 2815   3.018   3.526   3.569
    1GLY     H1 2816   3.354   3.575   3.284
    1GLY     H2 2817   3.312   3.689   3.400
    1GLY    HA1 2818   3.118   3.558   3.334
    1GLY    HA2 2819   3.203   3.414   3.391
    1GLY     H3 2820   3.394   3.552   3.448
    1GLY      N 2821   2.964   3.205   3.637
    1GLY     CA 2822   2.834   3.270   3.660
    1GLY      C 2823   2.783   3.246   3.801
    1GLY      O 2824   2.866   3.210   3.887
    1GLY     O1 2825   2.661   3.266   3.822
    1GLY     H1 2826   2.998   3.217   3.538
    1GLY     H2 2827   3.037   3.240   3.702
    1GLY    HA1 2828   2.847   3.378   3.645
    1GLY    HA2 2829   2.762   3.234   3.587
    1GLY     H3 2830   2.956   3.103   3.653
    1GLY      N 2831   3.824   1.412   2.632
    1GLY     CA 2832   3.954   1.478   2.609
    1GLY      C 2833   4.005   1.454   2.467
    1GLY      O 2834   3.922   1.417   2.381
    1GLY     O1 2835   4.127   1.474   2.446
    1GLY     H1 2836   3.790   1.424   2.731
    1GLY     H2 2837   3.750   1.447   2.567
    1GLY    HA1 2838   3.941   1.585   2.624
    1GLY    HA2 2839   4.026   1.441   2.681
    1GLY     H3 2840   3.832   1.310   2.615
    1GLY      N 2841   3.621   1.412   3.139
    1GLY     CA 2842   3.751   1.478   3.116
    1GLY      C 2843   3.802   1.454   2.974
    1GLY      O 2844   3.719   1.417   2.888
    1GLY     O1 2845   3.924   1.474   2.953
    1GLY     H1 2846   3.587   1.424   3.238
    1GLY     H2 2847   3.548   1.447   3.074
    1GLY    HA1 2848   3.738   1.585   3.131
    1GLY    HA2 2849   3.823   1.441   3.188
    1GLY     H3 2850   3.629   1.310   3.122
    1GLY      N 2851   4.026   2.607   2.125
    1GLY     CA 2852   4.156   2.673   2.102
    1GLY      C 2853   4.208   2.649   1.960
    1GLY      O 2854   4.124   2.612   1.874
    1GLY     O1 2855   4.329   2.669   1.939
    1GLY     H1 2856   3.993   2.619   2.224
    1GLY     H2 2857   3.953   2.642   2.060
    1GLY    HA1 2858   4.144   2.780   2.117
    1GLY    HA2 2859   4.228   2.636   2.174
    1GLY     H3 2860   4.034   2.505   2.108
    1GLY      N 2861   4.082   2.009   2.116
    1GLY     CA 2862   3.952   2.075   2.139
    1GLY      C 2863   3.901   2.051   2.280
    1GLY      O 2864   3.984   2.015   2.366
    1GLY     O1 2865   3.779   2.071   2.301
    1GLY     H1 2866   4.116   2.022   2.017
    1GLY     H2 2867   4.155   2.044   2.181
    1GLY    HA1 2868   3.965   2.183   2.124
    1GLY    HA2 2869   3.880   2.039   2.066
    1GLY     H3 2870   4.074   1.908   2.132
    1GLY      N 2871   3.824   2.607   2.632
    1GLY     CA 2872   3.954   2.673   2.609
    1GLY      C 2873   4.005   2.649   2.467
    1GLY      O 2874   3.922   2.612   2.381
    1GLY     O1 2875   4.127   2.669   2.446
    1GLY     H1 2876   3.790   2.619   2.731
    1GLY     H2 2877   3.750   2.642   2.567
    1GLY    HA1 2878   3.941   2.780   2.624
    1GLY    HA2 2879   4.026   2.636   2.681
    1GLY     H3 2880   3.832   2.505   2.615
    1GLY      N 2881   4.236   2.392   2.369
    1GLY     CA 2882   4.106   2.326   2.392
    1GLY      C 2883   4.054   2.350   2.534
    1GLY      O 2884   4.137   2.387   2.620
    1GLY     O1 2885   3.933   2.330   2.555
    1GLY     H1 2886   4.269   2.380   2.270
    1GLY     H2 2887   4.227   2.494   2.386
    1GLY    HA1 2888   4.034   2.363   2.320
    1GLY    HA2 2889   4.118   2.219   2.377
    1GLY     H3 2890   4.309   2.357   2.434
    1GLY      N 2891   3.879   2.009   2.623
    1GLY     CA 2892   3.749   2.075   2.646
    1GLY      C 2893   3.698   2.051   2.787
    1GLY      O 2894   3.781   2.015   2.873
    1GLY     O1 2895   3.576   2.071   2.808
    1GLY     H1 2896   3.913   2.022   2.524
    1GLY     H2 2897   3.953   2.044   2.688
    1GLY    HA1 2898   3.762   2.183   2.631
    1GLY    HA2 2899   3.677   2.039   2.573
    1GLY     H3 2900   3.871   1.908   2.639
    1GLY      N 2901   3.621   2.607   3.139
    1GLY     CA 2902   3.751   2.673   3.116
    1GLY      C 2903   3.802   2.649   2.974
    1GLY      O 2904   3.719   2.612   2.888
    1GLY     O1 2905   3.924   2.669   2.953
    1GLY     H1 2906   3.587   2.619   3.238
    1GLY     H2 2907   3.548   2.642   3.074
    1GLY    HA1 2908   3.738   2.780   3.131
    1GLY    HA2 2909   3.823   2.636   3.188
    1GLY     H3 2910   3.629   2.505   3.122
    1GLY      N 2911   4.033   2.392   2.876
    1GLY     CA 2912   3.903   2.326   2.899
    1GLY      C 2913   3.852   2.350   3.041
    1GLY      O 2914   3.935   2.387   3.127
    1GLY     O1 2915   3.730   2.330   3.062
    1GLY     H1 2916   4.067   2.380   2.777
    1GLY     H2 2917   4.025   2.494   2.893
    1GLY    HA1 2918   3.831   2.363   2.827
    1GLY    HA2 2919   3.916   2.219   2.884
    1GLY     H3 2920   4.106   2.357   2.941
    1GLY      N 2921   3.677   2.009   3.130
    1GLY     CA 2922   3.547   2.075   3.153
    1GLY      C 2923   3.496   2.051   3.294
    1GLY      O 2924   3.579   2.015   3.380
    1GLY     O1 2925   3.374   2.071   3.315
    1GLY     H1 2926   3.710   2.022   3.031
    1GLY     H2 2927   3.750   2.044   3.195
    1GLY    HA1 2928   3.560   2.183   3.138
    1GLY    HA2 2929   3.475   2.039   3.080
    1GLY     H3 2930   3.669   1.908   3.146
    1GLY      N 2931   3.419   2.607   3.646
    1GLY     CA 2932   3.548   2.673   3.623
    1GLY      C 2933   3.600   2.649   3.481
    1GLY      O 2934   3.517   2.612   3.395
    1GLY     O1 2935   3.722   2.669   3.460
    1GLY     H1 2936   3.385   2.619   3.745
    1GLY     H2 2937   3.345   2.642   3.581
    1GLY    HA1 2938   3.536   2.780   3.638
    1GLY    HA2 2939   3.621   2.636   3.695
    1GLY     H3 2940   3.427   2.505   3.629
    1GLY      N 2941   3.830   2.392   3.383
    1GLY     CA 2942   3.701   2.326   3.406
    1GLY      C 2943   3.649   2.350   3.548
    1GLY      O 2944   3.732   2.387   3.634
    1GLY     O1 2945   3.527   2.330   3.569
    1GLY     H1 2946   3.864   2.380   3.284
    1GLY     H2 2947   3.822   2.494   3.400
    1GLY    HA1 2948   3.628   2.363   3.334
    1GLY    HA2 2949   3.713   2.219   3.391
    1GLY     H3 2950   3.904   2.357   3.448
    1GLY      N 2951   3.474   2.009   3.637
    1GLY     CA 2952   3.344   2.075   3.660
    1GLY      C 2953   3.293   2.051   3.801
    1GLY      O 2954   3.376   2.015   3.887
    1GLY     O1 2955   3.171   2.071   3.822
    1GLY     H1 2956   3.508   2.022   3.538
    1GLY     H2 2957   3.547   2.044   3.702
    1GLY    HA1 2958   3.357   2.183   3.645
    1GLY    HA2 2959   3.272   2.039   3.587
    1GLY     H3 2960   3.466   1.908   3.653
    1GLY      N 2961   3.628   2.392   3.890
    1GLY     CA 2962   3.498   2.326   3.913
    1GLY      C 2963   3.447   2.350   4.055
    1GLY      O 2964   3.530   2.387   4.141
    1GLY     O1 2965   3.325   2.330   4.076
    1GLY     H1 2966   3.662   2.380   3.791
    1GLY     H2 2967   3.620   2.494   3.907
    1GLY    HA1 2968   3.426   2.363   3.840
    1GLY    HA2 2969   3.511   2.219   3.898
    1GLY     H3 2970   3.701   2.357   3.955
    1GLY      N 2971   4.082   3.205   2.116
    1GLY     CA 2972   3.952   3.270   2.139
    1GLY      C 2973   3.901   3.246   2.280
    1GLY      O 2974   3.984   3.210   2.366
    1GLY     O1 2975   3.779   3.266   2.301
    1GLY     H1 2976   4.116   3.217   2.017
    1GLY     H2 2977   4.155   3.240   2.181
    1GLY    HA1 2978   3.965   3.378   2.124
    1GLY    HA2 2979   3.880   3.234   2.066
    1GLY     H3 2980   4.074   3.103   2.132
    1GLY      N 2981   3.879   3.205   2.623
    1GLY     CA 2982   3.749   3.270   2.646
    1GLY      C 2983   3.698   3.246   2.787
    1GLY      O 2984   3.781   3.210   2.873
    1GLY     O1 2985   3.576   3.266   2.808
    1GLY     H1 2986   3.913   3.217   2.524
    1GLY     H2 2987   3.953   3.240   2.688
    1GLY    HA1 2988   3.762   3.378   2.631
    1GLY    HA2 2989   3.677   3.234   2.573
    1GLY     H3 2990   3.871   3.103   2.639
    1GLY      N 2991   4.033   3.587   2.876
    1GLY     CA 2992   3.903   3.522   2.899
    1GLY      C 2993   3.852   3.546   3.041
    1GLY      O 2994   3.935   3.582   3.127
    1GLY     O1 2995   3.730   3.526   3.062
    1GLY     H1 2996   4.067   3.575   2.777
    1GLY     H2 2997   4.025   3.689   2.893
    1GLY    HA1 2998   3.831   3.558   2.827
    1GLY    HA2 2999   3.916   3.414   2.884
    1GLY     H3 3000   4.106   3.552   2.941
    1GLY      N 3001   3.677   3.205   3.130
    1GLY     CA 3002   3.547   3.270   3.153
    1GLY      C 3003   3.496   3.246   3.294
    1GLY      O 3004   3.579   3.210   3.380
    1GLY     O1 3005   3.374   3.266   3.315
    1GLY     H1 3006   3.710   3.217   3.031
    1GLY     H2 3007   3.750   3.240   3.195
    1GLY    HA1 3008   3.560   3.378   3.138
    1GLY    HA2 3009   3.475   3.234   3.080
    1GLY     H3 3010   3.669   3.103   3.146
    1GLY      N 3011   3.474   3.205   3.637
    1GLY     CA 3012   3.344   3.270   3.660
    1GLY      C 3013   3.293   3.246   3.801
    1GLY      O 3014   3.376   3.210   3.887
    1GLY     O1 3015   3.171   3.266   3.822
    1GLY     H1 3016   3.508   3.217   3.538
    1GLY     H2 3017   3.547   3.240   3.702
    1GLY    HA1 3018   3.357   3.378   3.645
    1GLY    HA2 3019   3.272   3.234   3.587
    1GLY     H3 3020   3.466   3.103   3.653
    2GLY      N 3021   2.032   1.084   0.516
    2GLY     CA 3022   2.038   1.169   0.640
    2GLY      C 3023   2.127   1.288   0.630
    2GLY      O 3024   2.156   1.332   0.520
    2GLY     O1 3025   2.174   1.318   0.740
    2GLY     H1 3026   1.972   1.002   0.532
    2GLY     H2 3027   1.978   1.137   0.446
    2GLY    HA1 3028   1.932   1.186   0.659
    2GLY    HA2 3029   2.078   1.105   0.719
    2GLY     H3 3030   2.120   1.051   0.473
    3GLY      N 3031   3.582   1.145   1.352
    3GLY     CA 3032   3.686   1.245   1.394
    3GLY      C 3033   3.785   1.279   1.287
    3GLY      O 3034   3.757   1.259   1.170
    3GLY     O1 3035   3.894   1.310   1.337
    3GLY     H1 3036   3.520   1.124   1.431
    3GLY     H2 3037   3.518   1.193   1.287
    3GLY    HA1 3038   3.624   1.325   1.433
    3GLY    HA2 3039   3.741   1.200   1.476
    3GLY     H3 3040   3.612   1.055   1.310
    4GLY      N 3041   1.505   4.549   0.586
    4GLY     CA 3042   1.434   4.614   0.470
    4GLY      C 3043   1.379   4.519   0.369
    4GLY      O 3044   1.359   4.403   0.401
    4GLY     O1 3045   1.377   4.571   0.257
    4GLY     H1 3046   1.542   4.621   0.649
    4GLY     H2 3047   1.432   4.505   0.645
    4GLY    HA1 3048   1.363   4.679   0.523
    4GLY    HA2 3049   1.508   4.677   0.420
    4GLY     H3 3050   1.579   4.481   0.567
    5GLY      N 3051   0.100   1.766   2.810
    5GLY     CA 3052   0.022   1.883   2.758
    5GLY      C 3053  -0.102   1.915   2.836
    5GLY      O 3054  -0.112   1.875   2.951
    5GLY     O1 3055  -0.188   1.966   2.763
    5GLY     H1 3056   0.181   1.749   2.749
    5GLY     H2 3057   0.145   1.796   2.898
    5GLY    HA1 3058   0.099   1.960   2.753
    5GLY    HA2 3059  -0.009   1.858   2.656
    5GLY     H3 3060   0.053   1.676   2.826
    6GLY      N 3061   1.451   3.922   4.075
    6GLY     CA 3062   1.567   3.896   4.168
    6GLY      C 3063   1.692   3.851   4.101
    6GLY      O 3064   1.708   3.874   3.982
    6GLY     O1 3065   1.758   3.778   4.175
    6GLY     H1 3066   1.368   3.949   4.130
    6GLY     H2 3067   1.473   4.009   4.024
    6GLY    HA1 3068   1.570   3.989   4.224
    6GLY    HA2 3069   1.535   3.816   4.235
    6GLY     H3 3070   1.423   3.849   4.008
    7GLY      N 3071   3.289   3.469   0.514
    7GLY     CA 3072   3.313   3.572   0.621
    7GLY      C 3073   3.450   3.631   0.621
    7GLY      O 3074   3.518   3.625   0.520
    7GLY     O1 3075   3.483   3.665   0.735
    7GLY     H1 3076   3.194   3.431   0.523
    7GLY     H2 3077   3.284   3.519   0.424
    7GLY    HA1 3078   3.229   3.640   0.604
    7GLY    HA2 3079   3.298   3.522   0.716
    7GLY     H3 3080   3.355   3.389   0.505
    8GLY      N 3081   4.707   2.334   0.723
    8GLY     CA 3082   4.782   2.451   0.664
    8GLY      C 3083   4.742   2.584   0.717
    8GLY      O 3084   4.685   2.591   0.825
    8GLY     O1 3085   4.758   2.672   0.632
    8GLY     H1 3086   4.739   2.247   0.679
    8GLY     H2 3087   4.741   2.323   0.820
    8GLY    HA1 3088   4.886   2.419   0.679
    8GLY    HA2 3089   4.761   2.450   0.557
    8GLY     H3 3090   4.604   2.335   0.723
    9GLY      N 3091   0.785   1.231   2.900
    9GLY     CA 3092   0.836   1.346   2.817
    9GLY      C 3093   0.736   1.402   2.721
    9GLY      O 3094   0.617   1.382   2.739
    9GLY     O1 3095   0.793   1.449   2.622
    9GLY     H1 3096   0.860   1.197   2.960
    9GLY     H2 3097   0.718   1.270   2.968
    9GLY    HA1 3098   0.874   1.413   2.894
    9GLY    HA2 3099   0.920   1.308   2.759
    9GLY     H3 3100   0.742   1.150   2.852
   10GLY      N 3101   3.442   0.524   2.023
   10GLY     CA 3102   3.532   0.623   1.955
   10GLY      C 3103   3.570   0.741   2.038
   10GLY      O 3104   3.561   0.734   2.160
   10GLY     O1 3105   3.590   0.840   1.967
   10GLY     H1 3106   3.419   0.448   1.958
   10GLY     H2 3107   3.499   0.475   2.094
   10GLY    HA1 3108   3.613   0.558   1.920
   10GLY    HA2 3109   3.478   0.660   1.868
   10GLY     H3 3110   3.355   0.556   2.067
   11GLY      N 3111   3.052   4.765   1.988
   11GLY     CA 3112   2.905   4.764   2.023
   11GLY      C 3113   2.837   4.633   2.001
   11GLY      O 3114   2.903   4.531   1.995
   11GLY     O1 3115   2.718   4.650   1.975
   11GLY     H1 3116   3.090   4.859   2.002
   11GLY     H2 3117   3.101   4.710   2.060
   11GLY    HA1 3118   2.908   4.803   2.125
   11GLY    HA2 3119   2.857   4.838   1.959
   11GLY     H3 3120   3.081   4.733   1.894
   12GLY      N 3121   3.482   2.940   4.301
   12GLY     CA 3122   3.499   2.888   4.160
   12GLY      C 3123   3.553   2.748   4.152
   12GLY      O 3124   3.543   2.674   4.248
   12GLY     O1 3125   3.617   2.732   4.048
   12GLY     H1 3126   3.449   3.037   4.297
   12GLY     H2 3127   3.402   2.890   4.342
   12GLY    HA1 3128   3.400   2.906   4.118
   12GLY    HA2 3129   3.571   2.953   4.111
   12GLY     H3 3130   3.562   2.935   4.366
   13GLY      N 3131   0.577   0.445   0.477
   13GLY     CA 3132   0.618   0.302   0.501
   13GLY      C 3133   0.734   0.256   0.419
   13GLY      O 3134   0.810   0.339   0.371
   13GLY     O1 3135   0.727   0.135   0.397
   13GLY     H1 3136   0.495   0.468   0.535
   13GLY     H2 3137   0.650   0.505   0.519
   13GLY    HA1 3138   0.630   0.301   0.610
   13GLY    HA2 3139   0.532   0.240   0.474
   13GLY     H3 3140   0.559   0.477   0.381
   14GLY      N 3141   1.900   0.418   3.757
   14GLY     CA 3142   1.898   0.285   3.687
   14GLY      C 3143   2.029   0.243   3.629
   14GLY      O 3144   2.132   0.293   3.671
   14GLY     O1 3145   2.013   0.172   3.529
   14GLY     H1 3146   1.805   0.440   3.791
   14GLY     H2 3147   1.952   0.405   3.845
   14GLY    HA1 3148   1.854   0.221   3.763
   14GLY    HA2 3149   1.827   0.294   3.604
   14GLY     H3 3150   1.937   0.500   3.708
   15GLY      N 3151   4.345   4.928   1.005
   15GLY     CA 3152   4.360   4.802   1.085
   15GLY      C 3153   4.501   4.756   1.105
   15GLY      O 3154   4.592   4.836   1.091
   15GLY     O1 3155   4.506   4.633   1.116
   15GLY     H1 3156   4.245   4.950   0.994
   15GLY     H2 3157   4.378   5.006   1.065
   15GLY    HA1 3158   4.302   4.826   1.175
   15GLY    HA2 3159   4.307   4.724   1.030
   15GLY     H3 3160   4.390   4.935   0.913
   16GLY      N 3161   4.359   2.110   2.646
   16GLY     CA 3162   4.474   2.110   2.549
   16GLY      C 3163   4.520   1.974   2.507
   16GLY      O 3164   4.445   1.879   2.520
   16GLY     O1 3165   4.641   1.976   2.480
   16GLY     H1 3166   4.336   2.207   2.672
   16GLY     H2 3167   4.275   2.081   2.594
   16GLY    HA1 3168   4.436   2.177   2.471
   16GLY    HA2 3169   4.558   2.159   2.599
   16GLY     H3 3170   4.366   2.055   2.733
   17GLY      N 3171   2.396   3.747   4.469
   17GLY     CA 3172   2.454   3.720   4.605
   17GLY      C 3173   2.598   3.680   4.604
   17GLY      O 3174   2.668   3.707   4.508
   17GLY     O1 3175   2.624   3.607   4.700
   17GLY     H1 3176   2.297   3.770   4.478
   17GLY     H2 3177   2.437   3.836   4.435
   17GLY    HA1 3178   2.428   3.812   4.657
   17GLY    HA2 3179   2.397   3.638   4.648
   17GLY     H3 3180   2.406   3.675   4.395
   18GLY      N 3181   5.032   2.312   2.280
   18GLY     CA 3182   4.964   2.420   2.199
   18GLY      C 3183   4.892   2.370   2.078
   18GLY      O 3184   4.859   2.253   2.072
   18GLY     O1 3185   4.891   2.456   1.990
   18GLY     H1 3186   5.082   2.355   2.359
   18GLY     H2 3187   4.957   2.259   2.327
   18GLY    HA1 3188   4.905   2.470   2.276
   18GLY    HA2 3189   5.043   2.487   2.165
   18GLY     H3 3190   5.096   2.247   2.233
   19GLY      N 3191   4.839   4.383   1.872
   19GLY     CA 3192   4.689   4.368   1.857
   19GLY      C 3193   4.625   4.470   1.769
   19GLY      O 3194   4.693   4.530   1.688
   19GLY     O1 3195   4.509   4.491   1.805
   19GLY     H1 3196   4.875   4.312   1.936
   19GLY     H2 3197   4.881   4.355   1.782
   19GLY    HA1 3198   4.682   4.263   1.828
   19GLY    HA2 3199   4.647   4.379   1.957
   19GLY     H3 3200   4.877   4.475   1.900
   20GLY      N 3201   2.129   0.579   1.113
   20GLY     CA 3202   2.192   0.548   0.979
   20GLY      C 3203   2.341   0.562   0.976
   20GLY      O 3204   2.404   0.557   1.081
   20GLY     O1 3205   2.379   0.594   0.864
   20GLY     H1 3206   2.027   0.571   1.106
   20GLY     H2 3207   2.153   0.501   1.176
   20GLY    HA1 3208   2.150   0.450   0.958
   20GLY    HA2 3209   2.151   0.620   0.908
   20GLY     H3 3210   2.151   0.668   1.160
   21GLY      N 3211   4.284   0.244   3.644
   21GLY     CA 3212   4.145   0.260   3.700
   21GLY      C 3213   4.037   0.257   3.597
   21GLY      O 3214   4.059   0.206   3.488
   21GLY     O1 3215   3.941   0.326   3.632
   21GLY     H1 3216   4.353   0.251   3.721
   21GLY     H2 3217   4.294   0.145   3.615
   21GLY    HA1 3218   4.144   0.183   3.776
   21GLY    HA2 3219   4.142   0.358   3.748
   21GLY     H3 3220   4.316   0.305   3.568
   22GLY      N 3221   3.105   4.892   1.562
   22GLY     CA 3222   3.177   4.888   1.430
   22GLY      C 3223   3.293   4.795   1.425
   22GLY      O 3224   3.300   4.704   1.506
   22GLY     O1 3225   3.378   4.835   1.346
   22GLY     H1 3226   3.028   4.961   1.558
   22GLY     H2 3227   3.053   4.803   1.571
   22GLY    HA1 3228   3.094   4.869   1.361
   22GLY    HA2 3229   3.215   4.989   1.412
   22GLY     H3 3230   3.158   4.909   1.648
   23GLY      N 3231   0.878   2.017   0.183
   23GLY     CA 3232   0.969   2.094   0.274
   23GLY      C 3233   0.937   2.240   0.284
   23GLY      O 3234   0.826   2.279   0.254
   23GLY     O1 3235   1.040   2.305   0.307
   23GLY     H1 3236   0.908   1.918   0.180
   23GLY     H2 3237   0.786   2.009   0.231
   23GLY    HA1 3238   0.963   2.035   0.366
   23GLY    HA2 3239   1.069   2.085   0.233
   23GLY     H3 3240   0.863   2.049   0.087
   24GLY      N 3241   2.297   0.352   1.519
   24GLY     CA 3242   2.444   0.382   1.530
   24GLY      C 3243   2.533   0.289   1.454
   24GLY      O 3244   2.486   0.224   1.362
   24GLY     O1 3245   2.642   0.278   1.509
   24GLY     H1 3246   2.244   0.419   1.576
   24GLY     H2 3247   2.268   0.379   1.423
   24GLY    HA1 3248   2.447   0.488   1.503
   24GLY    HA2 3249   2.470   0.373   1.636
   24GLY     H3 3250   2.263   0.257   1.539
   25GLY      N 3251   0.050   4.780   4.177
   25GLY     CA 3252   0.132   4.903   4.147
   25GLY      C 3253   0.057   5.010   4.074
   25GLY      O 3254  -0.065   5.012   4.078
   25GLY     O1 3255   0.134   5.076   4.004
   25GLY     H1 3256   0.110   4.710   4.223
   25GLY     H2 3257  -0.016   4.805   4.251
   25GLY    HA1 3258   0.171   4.927   4.246
   25GLY    HA2 3259   0.214   4.871   4.083
   25GLY     H3 3260  -0.000   4.733   4.100
   26GLY      N 3261   1.963   4.662   3.923
   26GLY     CA 3262   1.933   4.791   3.994
   26GLY      C 3263   2.015   4.907   3.948
   26GLY      O 3264   2.068   4.903   3.838
   26GLY     O1 3265   2.032   4.988   4.040
   26GLY     H1 3266   1.905   4.586   3.963
   26GLY     H2 3267   1.925   4.670   3.828
   26GLY    HA1 3268   1.825   4.798   3.982
   26GLY    HA2 3269   1.956   4.775   4.100
   26GLY     H3 3270   2.060   4.628   3.918
   27GLY      N 3271   3.307   4.089   0.668
   27GLY     CA 3272   3.295   3.962   0.748
   27GLY      C 3273   3.219   3.853   0.680
   27GLY      O 3274   3.205   3.856   0.558
   27GLY     O1 3275   3.163   3.781   0.763
   27GLY     H1 3276   3.358   4.160   0.723
   27GLY     H2 3277   3.373   4.070   0.591
   27GLY    HA1 3278   3.399   3.942   0.772
   27GLY    HA2 3279   3.242   3.988   0.839
   27GLY     H3 3280   3.222   4.133   0.630
   28GLY      N 3281   4.269   3.766   0.603
   28GLY     CA 3282   4.343   3.711   0.484
   28GLY      C 3283   4.417   3.812   0.405
   28GLY      O 3284   4.446   3.919   0.455
   28GLY     O1 3285   4.425   3.778   0.286
   28GLY     H1 3286   4.217   3.691   0.650
   28GLY     H2 3287   4.339   3.792   0.674
   28GLY    HA1 3288   4.401   3.631   0.531
   28GLY    HA2 3289   4.268   3.666   0.419
   28GLY     H3 3290   4.204   3.845   0.590
   29GLY      N 3291   3.261   0.406   2.643
   29GLY     CA 3292   3.327   0.293   2.717
   29GLY      C 3293   3.327   0.163   2.644
   29GLY      O 3294   3.313   0.162   2.523
   29GLY     O1 3295   3.325   0.068   2.723
   29GLY     H1 3296   3.262   0.491   2.701
   29GLY     H2 3297   3.324   0.432   2.565
   29GLY    HA1 3298   3.424   0.337   2.742
   29GLY    HA2 3299   3.270   0.279   2.809
   29GLY     H3 3300   3.166   0.394   2.606
   30SOL     OW 3301   0.230   0.628   0.113
   30SOL    HW1 3302   0.137   0.626   0.150
   30SOL    HW2 3303   0.231   0.589   0.021
   31SOL     OW 3304   0.225   0.275   0.996
   31SOL    HW1 3305   0.260   0.258   1.088
   31SOL    HW2 3306   0.137   0.230   0.984
   32SOL     OW 3307   0.019   0.368   0.647
   32SOL    HW1 3308  -0.063   0.411   0.686
   32SOL    HW2 3309  -0.009   0.295   0.584
   33SOL     OW 3310   0.569   1.275   1.165
   33SOL    HW1 3311   0.476   1.268   1.128
   33SOL    HW2 3312   0.580   1.364   1.209
   34SOL     OW 3313   1.555   1.511   0.703
   34SOL    HW1 3314   1.498   1.495   0.784
   34SOL    HW2 3315   1.496   1.521   0.623
   35SOL     OW 3316   1.135   0.703   0.717
   35SOL    HW1 3317   1.192   0.781   0.692
   35SOL    HW2 3318   1.075   0.729   0.793
   36SOL     OW 3319   1.755   0.607   0.231
   36SOL    HW1 3320   1.743   0.594   0.132
   36SOL    HW2 3321   1.725   0.526   0.280
   37SOL     OW 3322   0.768   1.144   1.023
   37SOL    HW1 3323   0.690   1.161   1.083
   37SOL    HW2 3324   0.802   1.231   0.987
   38SOL     OW 3325   0.850   0.798   1.823
   38SOL    HW1 3326   0.846   0.874   1.888
   38SOL    HW2 3327   0.872   0.834   1.732
   39SOL     OW 3328   0.685   1.012   0.665
   39SOL    HW1 3329   0.754   0.996   0.735
   39SOL    HW2 3330   0.612   1.069   0.703
   40SOL     OW 3331   0.686   1.161   1.803
   40SOL    HW1 3332   0.746   1.240   1.817
   40SOL    HW2 3333   0.600   1.192   1.762
   41SOL     OW 3334   0.335   1.435   1.061
   41SOL    HW1 3335   0.257   1.404   1.008
   41SOL    HW2 3336   0.393   1.493   1.004
   42SOL     OW 3337   1.460   1.505   1.339
   42SOL    HW1 3338   1.484   1.599   1.365
   42SOL    HW2 3339   1.444   1.451   1.421
   43SOL     OW 3340   0.438   0.392   1.499
   43SOL    HW1 3341   0.520   0.336   1.508
   43SOL    HW2 3342   0.357   0.334   1.503
   44SOL     OW 3343   1.603   0.447   0.737
   44SOL    HW1 3344   1.529   0.493   0.687
   44SOL    HW2 3345   1.654   0.515   0.790
   45SOL     OW 3346   0.231   1.713   0.483
   45SOL    HW1 3347   0.265   1.790   0.537
   45SOL    HW2 3348   0.275   1.713   0.393
   46SOL     OW 3349   1.127   1.341   1.690
   46SOL    HW1 3350   1.174   1.341   1.778
   46SOL    HW2 3351   1.079   1.254   1.679
   47SOL     OW 3352   0.230   1.434   0.538
   47SOL    HW1 3353   0.204   1.530   0.538
   47SOL    HW2 3354   0.159   1.380   0.583
   48SOL     OW 3355   0.240   1.091   0.886
   48SOL    HW1 3356   0.254   1.007   0.938
   48SOL    HW2 3357   0.185   1.155   0.941
   49SOL     OW 3358   0.620   1.786   1.439
   49SOL    HW1 3359   0.528   1.769   1.474
   49SOL    HW2 3360   0.648   1.878   1.465
   50SOL     OW 3361   0.606   0.964   0.123
   50SOL    HW1 3362   0.613   1.048   0.069
   50SOL    HW2 3363   0.652   0.977   0.211
   51SOL     OW 3364   1.594   0.114   1.480
   51SOL    HW1 3365   1.576   0.181   1.408
   51SOL    HW2 3366   1.591   0.160   1.569
   52SOL     OW 3367   0.122   0.643   0.563
   52SOL    HW1 3368   0.077   0.555   0.580
   52SOL    HW2 3369   0.121   0.697   0.647
   53SOL     OW 3370   1.842   1.767   0.359
   53SOL    HW1 3371   1.896   1.738   0.439
   53SOL    HW2 3372   1.872   1.857   0.330
   54SOL     OW 3373   0.027   1.596   0.117
   54SOL    HW1 3374   0.008   1.500   0.138
   54SOL    HW2 3375  -0.006   1.654   0.192
   55SOL     OW 3376   1.689   0.922   0.612
   55SOL    HW1 3377   1.784   0.893   0.620
   55SOL    HW2 3378   1.681   0.987   0.537
   56SOL     OW 3379   1.641   1.108   0.432
   56SOL    HW1 3380   1.727   1.110   0.380
   56SOL    HW2 3381   1.655   1.155   0.520
   57SOL     OW 3382   0.113   0.737   1.597
   57SOL    HW1 3383   0.201   0.724   1.642
   57SOL    HW2 3384   0.100   0.834   1.575
   58SOL     OW 3385   0.613   1.365   0.726
   58SOL    HW1 3386   0.564   1.278   0.735
   58SOL    HW2 3387   0.590   1.408   0.639
   59SOL     OW 3388   1.293   1.228   1.423
   59SOL    HW1 3389   1.330   1.155   1.365
   59SOL    HW2 3390   1.345   1.233   1.508
   60SOL     OW 3391   0.809   0.004   0.502
   60SOL    HW1 3392   0.849   0.095   0.493
   60SOL    HW2 3393   0.709   0.012   0.508
   61SOL     OW 3394   0.197   0.976   1.264
   61SOL    HW1 3395   0.286   0.931   1.250
   61SOL    HW2 3396   0.124   0.911   1.245
   62SOL     OW 3397   1.525   0.999   0.190
   62SOL    HW1 3398   1.462   0.923   0.203
   62SOL    HW2 3399   1.573   1.017   0.276
   63SOL     OW 3400   1.187   1.792   1.616
   63SOL    HW1 3401   1.211   1.852   1.540
   63SOL    HW2 3402   1.194   1.697   1.586
   64SOL     OW 3403   0.317   0.251   1.801
   64SOL    HW1 3404   0.388   0.322   1.807
   64SOL    HW2 3405   0.229   0.290   1.829
   65SOL     OW 3406   1.466   1.417   0.953
   65SOL    HW1 3407   1.407   1.423   1.033
   65SOL    HW2 3408   1.451   1.329   0.907
   66SOL     OW 3409   1.667   1.714   0.572
   66SOL    HW1 3410   1.626   1.691   0.484
   66SOL    HW2 3411   1.649   1.640   0.637
   67SOL     OW 3412   0.598   0.729   0.270
   67SOL    HW1 3413   0.622   0.798   0.202
   67SOL    HW2 3414   0.520   0.762   0.324
   68SOL     OW 3415   1.281   0.345   0.944
   68SOL    HW1 3416   1.195   0.295   0.931
   68SOL    HW2 3417   1.343   0.291   1.000
   69SOL     OW 3418   1.576   1.662   0.307
   69SOL    HW1 3419   1.665   1.708   0.310
   69SOL    HW2 3420   1.555   1.638   0.212
   70SOL     OW 3421   0.807   0.605   1.465
   70SOL    HW1 3422   0.760   0.602   1.554
   70SOL    HW2 3423   0.756   0.550   1.399
   71SOL     OW 3424   1.394   0.469   1.674
   71SOL    HW1 3425   1.374   0.512   1.762
   71SOL    HW2 3426   1.472   0.407   1.683
   72SOL     OW 3427   0.973   0.890   1.572
   72SOL    HW1 3428   1.019   0.806   1.543
   72SOL    HW2 3429   0.917   0.924   1.497
   73SOL     OW 3430   0.991   0.410   1.242
   73SOL    HW1 3431   0.914   0.444   1.296
   73SOL    HW2 3432   0.957   0.359   1.163
   74SOL     OW 3433   1.041   0.701   0.429
   74SOL    HW1 3434   1.067   0.697   0.525
   74SOL    HW2 3435   0.956   0.650   0.415
   75SOL     OW 3436   0.076   0.811   0.789
   75SOL    HW1 3437   0.175   0.799   0.798
   75SOL    HW2 3438   0.052   0.906   0.810
   76SOL     OW 3439   0.130   1.821   1.571
   76SOL    HW1 3440   0.120   1.806   1.670
   76SOL    HW2 3441   0.044   1.857   1.535
   77SOL     OW 3442   0.865   0.348   0.195
   77SOL    HW1 3443   0.924   0.411   0.146
   77SOL    HW2 3444   0.884   0.254   0.166
   78SOL     OW 3445   1.719   0.585   1.831
   78SOL    HW1 3446   1.693   0.674   1.795
   78SOL    HW2 3447   1.717   0.517   1.758
   79SOL     OW 3448   1.362   1.144   0.545
   79SOL    HW1 3449   1.445   1.115   0.497
   79SOL    HW2 3450   1.313   1.211   0.489
   80SOL     OW 3451   0.550   0.196   0.885
   80SOL    HW1 3452   0.545   0.191   0.985
   80SOL    HW2 3453   0.552   0.292   0.856
   81SOL     OW 3454   1.008   1.456   0.477
   81SOL    HW1 3455   0.962   1.528   0.425
   81SOL    HW2 3456   1.004   1.476   0.575
   82SOL     OW 3457   0.351   1.801   0.853
   82SOL    HW1 3458   0.401   1.715   0.859
   82SOL    HW2 3459   0.416   1.878   0.850
   83SOL     OW 3460   1.795   1.066   0.873
   83SOL    HW1 3461   1.733   1.051   0.797
   83SOL    HW2 3462   1.743   1.077   0.958
   84SOL     OW 3463   1.227   1.550   1.506
   84SOL    HW1 3464   1.233   1.473   1.570
   84SOL    HW2 3465   1.175   1.524   1.426
   85SOL     OW 3466   0.321   0.943   0.242
   85SOL    HW1 3467   0.403   0.982   0.200
   85SOL    HW2 3468   0.294   0.861   0.193
   86SOL     OW 3469   1.458   0.735   0.728
   86SOL    HW1 3470   1.453   0.670   0.803
   86SOL    HW2 3471   1.538   0.794   0.741
   87SOL     OW 3472   0.461   1.266   1.727
   87SOL    HW1 3473   0.411   1.267   1.641
   87SOL    HW2 3474   0.398   1.248   1.803
   88SOL     OW 3475   1.111   1.776   0.237
   88SOL    HW1 3476   1.051   1.714   0.287
   88SOL    HW2 3477   1.142   1.732   0.152
   89SOL     OW 3478   0.202   0.285   1.498
   89SOL    HW1 3479   0.122   0.345   1.485
   89SOL    HW2 3480   0.192   0.236   1.584
   90SOL     OW 3481   1.632   1.377   0.081
   90SOL    HW1 3482   1.600   1.471   0.071
   90SOL    HW2 3483   1.556   1.314   0.069
   91SOL     OW 3484   0.464   1.743   0.323
   91SOL    HW1 3485   0.497   1.782   0.409
   91SOL    HW2 3486   0.540   1.736   0.258
   92SOL     OW 3487   1.400   0.107   0.426
   92SOL    HW1 3488   1.376   0.070   0.336
   92SOL    HW2 3489   1.499   0.123   0.430
   93SOL     OW 3490   0.249   1.785   1.241
   93SOL    HW1 3491   0.306   1.720   1.291
   93SOL    HW2 3492   0.233   1.752   1.148
   94SOL     OW 3493   0.940   1.698   0.904
   94SOL    HW1 3494   1.020   1.641   0.925
   94SOL    HW2 3495   0.891   1.658   0.827
   95SOL     OW 3496   0.382   0.700   0.480
   95SOL    HW1 3497   0.427   0.610   0.477
   95SOL    HW2 3498   0.288   0.689   0.513
   96SOL     OW 3499   1.547   0.222   1.729
   96SOL    HW1 3500   1.542   0.259   1.821
   96SOL    HW2 3501   1.475   0.153   1.717
   97SOL     OW 3502   0.614   0.122   0.117
   97SOL    HW1 3503   0.712   0.100   0.124
   97SOL    HW2 3504   0.583   0.105   0.024
   98SOL     OW 3505   0.781   0.264   1.749
   98SOL    HW1 3506   0.848   0.203   1.792
   98SOL    HW2 3507   0.708   0.283   1.814
   99SOL     OW 3508   0.888   1.514   1.195
   99SOL    HW1 3509   0.865   1.489   1.101
   99SOL    HW2 3510   0.949   1.445   1.234
  100SOL     OW 3511   1.351   0.590   1.433
  100SOL    HW1 3512   1.379   0.547   1.518
  100SOL    HW2 3513   1.376   0.686   1.434
  101SOL     OW 3514   0.803   1.402   0.924
  101SOL    HW1 3515   0.893   1.416   0.882
  101SOL    HW2 3516   0.732   1.404   0.853
  102SOL     OW 3517   0.922   0.503   0.899
  102SOL    HW1 3518   0.897   0.494   0.803
  102SOL    HW2 3519   0.970   0.421   0.930
  103SOL     OW 3520   1.434   1.188   0.041
  103SOL    HW1 3521   1.466   1.112   0.098
  103SOL    HW2 3522   1.342   1.215   0.071
  104SOL     OW 3523   0.297   0.035   0.171
  104SOL    HW1 3524   0.346   0.119   0.150
  104SOL    HW2 3525   0.359  -0.030   0.216
  105SOL     OW 3526   1.076   0.683   1.464
  105SOL    HW1 3527   0.996   0.622   1.467
  105SOL    HW2 3528   1.157   0.630   1.440
  106SOL     OW 3529   1.227   1.570   0.793
  106SOL    HW1 3530   1.248   1.644   0.728
  106SOL    HW2 3531   1.295   1.570   0.866
  107SOL     OW 3532   0.459   1.152   0.741
  107SOL    HW1 3533   0.388   1.125   0.806
  107SOL    HW2 3534   0.433   1.124   0.648
  108SOL     OW 3535   1.271   1.797   0.591
  108SOL    HW1 3536   1.315   1.861   0.527
  108SOL    HW2 3537   1.221   1.849   0.661
  109SOL     OW 3538   1.032   0.549   0.016
  109SOL    HW1 3539   0.991   0.631  -0.023
  109SOL    HW2 3540   1.096   0.575   0.089
  110SOL     OW 3541   0.078   0.556   1.386
  110SOL    HW1 3542   0.170   0.555   1.345
  110SOL    HW2 3543   0.072   0.630   1.453
  111SOL     OW 3544   0.561   0.222   1.147
  111SOL    HW1 3545   0.599   0.138   1.184
  111SOL    HW2 3546   0.473   0.241   1.191
  112SOL     OW 3547   0.866   0.454   0.642
  112SOL    HW1 3548   0.834   0.526   0.580
  112SOL    HW2 3549   0.890   0.373   0.589
  113SOL     OW 3550   1.017   0.039   0.753
  113SOL    HW1 3551   0.945   0.044   0.684
  113SOL    HW2 3552   0.993  -0.030   0.822
  114SOL     OW 3553   1.429   1.173   0.867
  114SOL    HW1 3554   1.374   1.089   0.860
  114SOL    HW2 3555   1.455   1.202   0.775
  115SOL     OW 3556   1.466   0.590   0.992
  115SOL    HW1 3557   1.436   0.495   0.999
  115SOL    HW2 3558   1.539   0.606   1.058
  116SOL     OW 3559   1.857   0.833   0.377
  116SOL    HW1 3560   1.899   0.769   0.441
  116SOL    HW2 3561   1.819   0.782   0.299
  117SOL     OW 3562   0.488   1.385   0.174
  117SOL    HW1 3563   0.401   1.370   0.221
  117SOL    HW2 3564   0.471   1.411   0.079
  118SOL     OW 3565   1.664   1.280   0.657
  118SOL    HW1 3566   1.763   1.288   0.671
  118SOL    HW2 3567   1.619   1.364   0.688
  119SOL     OW 3568   1.390   0.575   0.078
  119SOL    HW1 3569   1.336   0.554   0.159
  119SOL    HW2 3570   1.481   0.534   0.087
  120SOL     OW 3571   1.064   1.347   1.340
  120SOL    HW1 3572   0.984   1.324   1.395
  120SOL    HW2 3573   1.147   1.321   1.389
  121SOL     OW 3574   1.111   1.195   1.100
  121SOL    HW1 3575   1.071   1.239   1.181
  121SOL    HW2 3576   1.070   1.232   1.017
  122SOL     OW 3577   1.638   1.099   1.079
  122SOL    HW1 3578   1.643   1.180   1.138
  122SOL    HW2 3579   1.552   1.101   1.028
  123SOL     OW 3580   0.915   0.089   1.402
  123SOL    HW1 3581   0.940   0.069   1.307
  123SOL    HW2 3582   0.987   0.145   1.444
  124SOL     OW 3583   0.980   1.116   1.719
  124SOL    HW1 3584   0.881   1.122   1.729
  124SOL    HW2 3585   1.003   1.036   1.663
  125SOL     OW 3586   0.705   1.050   0.368
  125SOL    HW1 3587   0.691   1.057   0.467
  125SOL    HW2 3588   0.789   0.999   0.350
  126SOL     OW 3589   0.410   0.813   1.251
  126SOL    HW1 3590   0.496   0.825   1.301
  126SOL    HW2 3591   0.368   0.726   1.278
  127SOL     OW 3592   1.274   0.386   1.262
  127SOL    HW1 3593   1.295   0.460   1.326
  127SOL    HW2 3594   1.185   0.403   1.219
  128SOL     OW 3595   0.064   1.564   1.331
  128SOL    HW1 3596   0.018   1.646   1.297
  128SOL    HW2 3597   0.162   1.583   1.340
  129SOL     OW 3598   0.367   1.100   0.501
  129SOL    HW1 3599   0.360   1.183   0.445
  129SOL    HW2 3600   0.371   1.020   0.441
  130SOL     OW 3601   0.566   0.537   0.865
  130SOL    HW1 3602   0.578   0.603   0.791
  130SOL    HW2 3603   0.612   0.571   0.948
  131SOL     OW 3604   1.252   1.348   0.388
  131SOL    HW1 3605   1.302   1.425   0.428
  131SOL    HW2 3606   1.157   1.350   0.420
  132SOL     OW 3607   1.272   1.445   1.142
  132SOL    HW1 3608   1.319   1.458   1.229
  132SOL    HW2 3609   1.206   1.371   1.151
  133SOL     OW 3610   1.582   0.639   0.472
  133SOL    HW1 3611   1.551   0.700   0.545
  133SOL    HW2 3612   1.632   0.691   0.403
  134SOL     OW 3613   0.354   1.510   1.329
  134SOL    HW1 3614   0.333   1.466   1.242
  134SOL    HW2 3615   0.451   1.536   1.332
  135SOL     OW 3616   0.402   0.751   1.598
  135SOL    HW1 3617   0.470   0.806   1.551
  135SOL    HW2 3618   0.442   0.663   1.625
  136SOL     OW 3619   1.587   0.779   1.670
  136SOL    HW1 3620   1.495   0.817   1.665
  136SOL    HW2 3621   1.647   0.826   1.605
  137SOL     OW 3622   1.013   0.105   1.770
  137SOL    HW1 3623   1.019   0.190   1.718
  137SOL    HW2 3624   1.045   0.029   1.713
  138SOL     OW 3625   0.504   0.050   1.740
  138SOL    HW1 3626   0.462  -0.007   1.670
  138SOL    HW2 3627   0.438   0.119   1.772
  139SOL     OW 3628   0.573   0.870   1.029
  139SOL    HW1 3629   0.617   0.959   1.020
  139SOL    HW2 3630   0.510   0.870   1.106
  140SOL     OW 3631   1.360   0.862   1.045
  140SOL    HW1 3632   1.285   0.862   0.979
  140SOL    HW2 3633   1.397   0.770   1.054
  141SOL     OW 3634   1.209   0.525   0.275
  141SOL    HW1 3635   1.222   0.441   0.329
  141SOL    HW2 3636   1.180   0.599   0.335
  142SOL     OW 3637   0.307   0.213   1.231
  142SOL    HW1 3638   0.284   0.250   1.321
  142SOL    HW2 3639   0.277   0.118   1.225
  143SOL     OW 3640   0.037   1.310   1.282
  143SOL    HW1 3641   0.090   1.261   1.350
  143SOL    HW2 3642   0.059   1.408   1.287
  144SOL     OW 3643   0.732   0.634   1.064
  144SOL    HW1 3644   0.791   0.608   0.988
  144SOL    HW2 3645   0.704   0.730   1.053
  145SOL     OW 3646   0.307   0.063   0.618
  145SOL    HW1 3647   0.296   0.157   0.651
  145SOL    HW2 3648   0.302   0.000   0.695
  146SOL     OW 3649   1.622   0.367   0.374
  146SOL    HW1 3650   1.624   0.291   0.438
  146SOL    HW2 3651   1.574   0.444   0.414
  147SOL     OW 3652   1.023   0.766   0.966
  147SOL    HW1 3653   1.038   0.787   1.062
  147SOL    HW2 3654   0.993   0.671   0.957
  148SOL     OW 3655   0.980   1.573   1.700
  148SOL    HW1 3656   0.960   1.617   1.612
  148SOL    HW2 3657   1.019   1.482   1.684
  149SOL     OW 3658   0.350   0.898   1.804
  149SOL    HW1 3659   0.426   0.942   1.852
  149SOL    HW2 3660   0.385   0.851   1.722
  150SOL     OW 3661   1.540   0.274   0.125
  150SOL    HW1 3662   1.479   0.199   0.148
  150SOL    HW2 3663   1.562   0.326   0.208
  151SOL     OW 3664   1.303   0.838   0.042
  151SOL    HW1 3665   1.337   0.745   0.057
  151SOL    HW2 3666   1.321   0.865  -0.053
  152SOL     OW 3667   1.068   1.333   0.849
  152SOL    HW1 3668   1.075   1.249   0.794
  152SOL    HW2 3669   1.130   1.402   0.813
  153SOL     OW 3670   0.319   0.810   0.949
  153SOL    HW1 3671   0.412   0.846   0.954
  153SOL    HW2 3672   0.313   0.725   1.001
  154SOL     OW 3673   0.339   0.509   1.006
  154SOL    HW1 3674   0.287   0.426   0.989
  154SOL    HW2 3675   0.416   0.514   0.942
  155SOL     OW 3676   1.138   0.380   1.678
  155SOL    HW1 3677   1.093   0.443   1.742
  155SOL    HW2 3678   1.231   0.411   1.661
  156SOL     OW 3679   1.160   0.207   1.477
  156SOL    HW1 3680   1.160   0.271   1.554
  156SOL    HW2 3681   1.188   0.255   1.394
  157SOL     OW 3682   0.008   1.326   0.200
  157SOL    HW1 3683  -0.085   1.347   0.169
  157SOL    HW2 3684   0.018   1.227   0.213
  158SOL     OW 3685   0.088   1.801   0.927
  158SOL    HW1 3686   0.046   1.715   0.900
  158SOL    HW2 3687   0.182   1.804   0.893
  159SOL     OW 3688   0.504   1.568   0.910
  159SOL    HW1 3689   0.570   1.642   0.919
  159SOL    HW2 3690   0.548   1.489   0.868
  160SOL     OW 3691   1.002   0.796   1.238
  160SOL    HW1 3692   1.043   0.764   1.324
  160SOL    HW2 3693   0.906   0.769   1.235
  161SOL     OW 3694   0.040   0.544   1.114
  161SOL    HW1 3695   0.125   0.511   1.073
  161SOL    HW2 3696   0.053   0.559   1.212
  162SOL     OW 3697   0.189   0.520   1.722
  162SOL    HW1 3698   0.248   0.480   1.652
  162SOL    HW2 3699   0.131   0.591   1.681
  163SOL     OW 3700   1.369   0.950   1.660
  163SOL    HW1 3701   1.408   1.039   1.680
  163SOL    HW2 3702   1.379   0.930   1.563
  164SOL     OW 3703   0.815   0.572   0.325
  164SOL    HW1 3704   0.822   0.483   0.279
  164SOL    HW2 3705   0.721   0.606   0.317
  165SOL     OW 3706   1.657   0.604   1.206
  165SOL    HW1 3707   1.619   0.535   1.268
  165SOL    HW2 3708   1.739   0.568   1.162
  166SOL     OW 3709   0.252   1.564   1.744
  166SOL    HW1 3710   0.222   1.621   1.820
  166SOL    HW2 3711   0.245   1.467   1.770
  167SOL     OW 3712   0.671   0.464   1.269
  167SOL    HW1 3713   0.637   0.375   1.239
  167SOL    HW2 3714   0.697   0.518   1.189
  168SOL     OW 3715   0.930   1.678   1.465
  168SOL    HW1 3716   0.906   1.660   1.370
  168SOL    HW2 3717   0.960   1.772   1.475
  169SOL     OW 3718   0.473   0.500   0.191
  169SOL    HW1 3719   0.534   0.580   0.195
  169SOL    HW2 3720   0.378   0.531   0.198
  170SOL     OW 3721   0.159   1.137   1.466
  170SOL    HW1 3722   0.181   1.076   1.542
  170SOL    HW2 3723   0.169   1.088   1.380
  171SOL     OW 3724   1.347   1.059   1.234
  171SOL    HW1 3725   1.371   0.996   1.160
  171SOL    HW2 3726   1.257   1.099   1.216
  172SOL     OW 3727   1.302   0.855   0.309
  172SOL    HW1 3728   1.216   0.824   0.351
  172SOL    HW2 3729   1.298   0.841   0.210
  173SOL     OW 3730   1.252   1.731   1.128
  173SOL    HW1 3731   1.336   1.736   1.074
  173SOL    HW2 3732   1.229   1.635   1.146
  174SOL     OW 3733   0.083   1.258   1.022
  174SOL    HW1 3734   0.078   1.257   1.122
  174SOL    HW2 3735   0.000   1.217   0.984
  175SOL     OW 3736   0.688   1.662   1.716
  175SOL    HW1 3737   0.632   1.743   1.725
  175SOL    HW2 3738   0.740   1.666   1.630
  176SOL     OW 3739   0.903   0.086   0.133
  176SOL    HW1 3740   0.954   0.087   0.047
  176SOL    HW2 3741   0.959   0.044   0.204
  177SOL     OW 3742   1.726   0.135   0.523
  177SOL    HW1 3743   1.799   0.118   0.456
  177SOL    HW2 3744   1.695   0.048   0.561
  178SOL     OW 3745   1.388   1.573   0.477
  178SOL    HW1 3746   1.455   1.585   0.403
  178SOL    HW2 3747   1.348   1.662   0.500
  179SOL     OW 3748   0.130   1.794   1.851
  179SOL    HW1 3749   0.089   1.720   1.904
  179SOL    HW2 3750   0.194   1.845   1.909
  180SOL     OW 3751   1.280   0.927   0.672
  180SOL    HW1 3752   1.340   0.846   0.674
  180SOL    HW2 3753   1.320   0.996   0.612
  181SOL     OW 3754   0.830   1.273   1.422
  181SOL    HW1 3755   0.825   1.306   1.517
  181SOL    HW2 3756   0.744   1.292   1.376
  182SOL     OW 3757   0.672   1.616   0.154
  182SOL    HW1 3758   0.681   1.626   0.055
  182SOL    HW2 3759   0.632   1.527   0.175
  183SOL     OW 3760   1.841   0.175   0.963
  183SOL    HW1 3761   1.880   0.090   0.927
  183SOL    HW2 3762   1.743   0.177   0.944
  184SOL     OW 3763   0.263   0.326   0.720
  184SOL    HW1 3764   0.184   0.377   0.686
  184SOL    HW2 3765   0.254   0.311   0.818
  185SOL     OW 3766   1.194   1.612   0.031
  185SOL    HW1 3767   1.200   1.519   0.068
  185SOL    HW2 3768   1.135   1.612  -0.049
  186SOL     OW 3769   0.822   1.002   1.372
  186SOL    HW1 3770   0.862   1.001   1.280
  186SOL    HW2 3771   0.832   1.094   1.412
  187SOL     OW 3772   0.916   0.910   0.291
  187SOL    HW1 3773   0.979   0.948   0.223
  187SOL    HW2 3774   0.956   0.827   0.330
  188SOL     OW 3775   1.504   1.607   0.044
  188SOL    HW1 3776   1.412   1.644   0.051
  188SOL    HW2 3777   1.542   1.627  -0.046
  189SOL     OW 3778   0.372   1.288   1.490
  189SOL    HW1 3779   0.359   1.381   1.456
  189SOL    HW2 3780   0.288   1.236   1.477
  190SOL     OW 3781   1.614   1.292   1.289
  190SOL    HW1 3782   1.674   1.295   1.369
  190SOL    HW2 3783   1.539   1.356   1.302
  191SOL     OW 3784   1.039   1.098   0.696
  191SOL    HW1 3785   0.969   1.051   0.750
  191SOL    HW2 3786   1.098   1.030   0.653
  192SOL     OW 3787   1.014   0.236   0.971
  192SOL    HW1 3788   1.006   0.200   0.878
  192SOL    HW2 3789   1.012   0.160   1.036
  193SOL     OW 3790   0.590   1.487   0.491
  193SOL    HW1 3791   0.632   1.429   0.421
  193SOL    HW2 3792   0.546   1.566   0.447
  194SOL     OW 3793   1.709   0.385   1.381
  194SOL    HW1 3794   1.782   0.454   1.385
  194SOL    HW2 3795   1.737   0.310   1.322
  195SOL     OW 3796   0.255   1.348   0.290
  195SOL    HW1 3797   0.159   1.349   0.263
  195SOL    HW2 3798   0.267   1.401   0.374
  196SOL     OW 3799   0.105   1.013   1.726
  196SOL    HW1 3800   0.028   0.980   1.780
  196SOL    HW2 3801   0.190   0.983   1.768
  197SOL     OW 3802   0.672   0.203   1.489
  197SOL    HW1 3803   0.762   0.187   1.449
  197SOL    HW2 3804   0.680   0.208   1.588
  198SOL     OW 3805   0.075   0.345   0.033
  198SOL    HW1 3806  -0.017   0.317   0.004
  198SOL    HW2 3807   0.106   0.422  -0.023
  199SOL     OW 3808   1.440   0.856   1.398
  199SOL    HW1 3809   1.383   0.908   1.335
  199SOL    HW2 3810   1.536   0.868   1.374
  200SOL     OW 3811   0.072   0.166   0.318
  200SOL    HW1 3812   0.055   0.249   0.264
  200SOL    HW2 3813   0.162   0.129   0.296
  201SOL     OW 3814   1.183   1.335   0.119
  201SOL    HW1 3815   1.084   1.324   0.121
  201SOL    HW2 3816   1.217   1.350   0.212
  202SOL     OW 3817   0.613   0.842   1.431
  202SOL    HW1 3818   0.669   0.923   1.414
  202SOL    HW2 3819   0.672   0.762   1.434
  203SOL     OW 3820   0.716   0.565   1.708
  203SOL    HW1 3821   0.735   0.630   1.782
  203SOL    HW2 3822   0.776   0.485   1.717
  204SOL     OW 3823   1.450   1.220   1.633
  204SOL    HW1 3824   1.441   1.210   1.732
  204SOL    HW2 3825   1.546   1.213   1.607
  205SOL     OW 3826   0.390   1.741   1.560
  205SOL    HW1 3827   0.299   1.782   1.558
  205SOL    HW2 3828   0.383   1.647   1.592
  206SOL     OW 3829   1.674   0.883   1.254
  206SOL    HW1 3830   1.647   0.794   1.217
  206SOL    HW2 3831   1.675   0.951   1.181
  207SOL     OW 3832   1.225   0.325   0.449
  207SOL    HW1 3833   1.290   0.251   0.438
  207SOL    HW2 3834   1.245   0.375   0.533
  208SOL     OW 3835   0.594   0.745   0.652
  208SOL    HW1 3836   0.644   0.830   0.633
  208SOL    HW2 3837   0.506   0.747   0.604
  209SOL     OW 3838   1.777   0.342   1.642
  209SOL    HW1 3839   1.760   0.373   1.548
  209SOL    HW2 3840   1.693   0.305   1.680
  210SOL     OW 3841   1.730   0.934   1.517
  210SOL    HW1 3842   1.768   1.025   1.532
  210SOL    HW2 3843   1.722   0.917   1.418
  211SOL     OW 3844   0.859   1.374   0.016
  211SOL    HW1 3845   0.813   1.389   0.104
  211SOL    HW2 3846   0.903   1.459  -0.014
  212SOL     OW 3847   0.661   1.790   0.953
  212SOL    HW1 3848   0.615   1.878   0.940
  212SOL    HW2 3849   0.760   1.802   0.946
  213SOL     OW 3850   0.859   0.956   0.861
  213SOL    HW1 3851   0.913   0.887   0.909
  213SOL    HW2 3852   0.827   1.025   0.927
  214SOL     OW 3853   1.083   0.984   0.087
  214SOL    HW1 3854   1.060   1.037   0.005
  214SOL    HW2 3855   1.164   0.928   0.068
  215SOL     OW 3856   1.861   1.569   0.851
  215SOL    HW1 3857   1.790   1.557   0.781
  215SOL    HW2 3858   1.862   1.490   0.911
  216SOL     OW 3859   0.221   1.314   1.844
  216SOL    HW1 3860   0.156   1.241   1.823
  216SOL    HW2 3861   0.225   1.328   1.942
  217SOL     OW 3862   0.079   1.240   0.653
  217SOL    HW1 3863   0.078   1.193   0.741
  217SOL    HW2 3864   0.161   1.212   0.602
  218SOL     OW 3865   0.672   1.391   1.624
  218SOL    HW1 3866   0.594   1.341   1.662
  218SOL    HW2 3867   0.669   1.486   1.655
  219SOL     OW 3868   1.824   0.192   1.227
  219SOL    HW1 3869   1.820   0.102   1.271
  219SOL    HW2 3870   1.827   0.181   1.128
  220SOL     OW 3871   1.705   1.487   1.104
  220SOL    HW1 3872   1.612   1.462   1.077
  220SOL    HW2 3873   1.731   1.437   1.186
  221SOL     OW 3874   0.317   0.547   1.280
  221SOL    HW1 3875   0.355   0.488   1.352
  221SOL    HW2 3876   0.357   0.521   1.192
  222SOL     OW 3877   0.812   1.586   0.687
  222SOL    HW1 3878   0.844   1.596   0.593
  222SOL    HW2 3879   0.733   1.524   0.689
  223SOL     OW 3880   1.424   0.214   1.112
  223SOL    HW1 3881   1.476   0.149   1.167
  223SOL    HW2 3882   1.375   0.277   1.173
  224SOL     OW 3883   1.001   0.034   1.154
  224SOL    HW1 3884   0.938  -0.038   1.123
  224SOL    HW2 3885   1.094  -0.002   1.154
  225SOL     OW 3886   0.770   1.330   0.301
  225SOL    HW1 3887   0.724   1.243   0.318
  225SOL    HW2 3888   0.861   1.327   0.342
  226SOL     OW 3889   0.618   1.567   1.284
  226SOL    HW1 3890   0.613   1.649   1.341
  226SOL    HW2 3891   0.707   1.564   1.239
  227SOL     OW 3892   1.352   0.052   0.168
  227SOL    HW1 3893   1.387   0.011   0.084
  227SOL    HW2 3894   1.262   0.014   0.188
  228SOL     OW 3895   1.300   0.453   0.691
  228SOL    HW1 3896   1.241   0.533   0.695
  228SOL    HW2 3897   1.315   0.418   0.784
  229SOL     OW 3898   1.593   0.221   0.882
  229SOL    HW1 3899   1.509   0.220   0.936
  229SOL    HW2 3900   1.595   0.304   0.826
  230SOL     OW 3901   0.039   1.077   0.300
  230SOL    HW1 3902   0.138   1.066   0.291
  230SOL    HW2 3903  -0.001   0.991   0.332
  231SOL     OW 3904   0.875   1.646   0.337
  231SOL    HW1 3905   0.798   1.611   0.283
  231SOL    HW2 3906   0.843   1.717   0.399
  232SOL     OW 3907   0.230   0.628   1.975
  232SOL    HW1 3908   0.137   0.626   2.012
  232SOL    HW2 3909   0.231   0.589   1.883
  233SOL     OW 3910   0.225   0.275   2.858
  233SOL    HW1 3911   0.260   0.258   2.950
  233SOL    HW2 3912   0.137   0.230   2.846
  234SOL     OW 3913   0.019   0.368   2.509
  234SOL    HW1 3914  -0.063   0.411   2.548
  234SOL    HW2 3915  -0.009   0.295   2.446
  235SOL     OW 3916   0.569   1.275   3.027
  235SOL    HW1 3917   0.476   1.268   2.990
  235SOL    HW2 3918   0.580   1.364   3.071
  236SOL     OW 3919   1.135   0.703   2.579
  236SOL    HW1 3920   1.192   0.781   2.554
  236SOL    HW2 3921   1.075   0.729   2.655
  237SOL     OW 3922   1.755   0.607   2.093
  237SOL    HW1 3923   1.743   0.594   1.994
  237SOL    HW2 3924   1.725   0.526   2.142
  238SOL     OW 3925   0.850   0.798   3.685
  238SOL    HW1 3926   0.846   0.874   3.750
  238SOL    HW2 3927   0.872   0.834   3.594
  239SOL     OW 3928   0.685   1.012   2.527
  239SOL    HW1 3929   0.754   0.996   2.597
  239SOL    HW2 3930   0.612   1.069   2.565
  240SOL     OW 3931   0.686   1.161   3.665
  240SOL    HW1 3932   0.746   1.240   3.679
  240SOL    HW2 3933   0.600   1.192   3.624
  241SOL     OW 3934   0.335   1.435   2.923
  241SOL    HW1 3935   0.257   1.404   2.870
  241SOL    HW2 3936   0.393   1.493   2.866
  242SOL     OW 3937   0.438   0.392   3.361
  242SOL    HW1 3938   0.520   0.336   3.370
  242SOL    HW2 3939   0.357   0.334   3.365
  243SOL     OW 3940   1.603   0.447   2.599
  243SOL    HW1 3941   1.529   0.493   2.549
  243SOL    HW2 3942   1.654   0.515   2.652
  244SOL     OW 3943   0.231   1.713   2.345
  244SOL    HW1 3944   0.265   1.790   2.399
  244SOL    HW2 3945   0.275   1.713   2.255
  245SOL     OW 3946   1.127   1.341   3.552
  245SOL    HW1 3947   1.174   1.341   3.640
  245SOL    HW2 3948   1.079   1.254   3.541
  246SOL     OW 3949   0.230   1.434   2.400
  246SOL    HW1 3950   0.204   1.530   2.400
  246SOL    HW2 3951   0.159   1.380   2.445
  247SOL     OW 3952   0.240   1.091   2.748
  247SOL    HW1 3953   0.254   1.007   2.800
  247SOL    HW2 3954   0.185   1.155   2.803
  248SOL     OW 3955   0.620   1.786   3.301
  248SOL    HW1 3956   0.528   1.769   3.336
  248SOL    HW2 3957   0.648   1.878   3.327
  249SOL     OW 3958   0.606   0.964   1.985
  249SOL    HW1 3959   0.613   1.048   1.931
  249SOL    HW2 3960   0.652   0.977   2.073
  250SOL     OW 3961   1.594   0.114   3.342
  250SOL    HW1 3962   1.576   0.181   3.270
  250SOL    HW2 3963   1.591   0.160   3.431
  251SOL     OW 3964   0.122   0.643   2.425
  251SOL    HW1 3965   0.077   0.555   2.442
  251SOL    HW2 3966   0.121   0.697   2.509
  252SOL     OW 3967   0.027   1.596   1.979
  252SOL    HW1 3968   0.008   1.500   2.000
  252SOL    HW2 3969  -0.006   1.654   2.054
  253SOL     OW 3970   0.113   0.737   3.459
  253SOL    HW1 3971   0.201   0.724   3.504
  253SOL    HW2 3972   0.100   0.834   3.437
  254SOL     OW 3973   1.293   1.228   3.285
  254SOL    HW1 3974   1.330   1.155   3.227
  254SOL    HW2 3975   1.345   1.233   3.370
  255SOL     OW 3976   0.809   0.004   2.364
  255SOL    HW1 3977   0.849   0.095   2.355
  255SOL    HW2 3978   0.709   0.012   2.370
  256SOL     OW 3979   0.197   0.976   3.126
  256SOL    HW1 3980   0.286   0.931   3.112
  256SOL    HW2 3981   0.124   0.911   3.107
  257SOL     OW 3982   0.317   0.251   3.663
  257SOL    HW1 3983   0.388   0.322   3.669
  257SOL    HW2 3984   0.229   0.290   3.691
  258SOL     OW 3985   0.598   0.729   2.132
  258SOL    HW1 3986   0.622   0.798   2.064
  258SOL    HW2 3987   0.520   0.762   2.186
  259SOL     OW 3988   1.281   0.345   2.806
  259SOL    HW1 3989   1.195   0.295   2.793
  259SOL    HW2 3990   1.343   0.291   2.862
  260SOL     OW 3991   0.807   0.605   3.327
  260SOL    HW1 3992   0.760   0.602   3.416
  260SOL    HW2 3993   0.756   0.550   3.261
  261SOL     OW 3994   1.394   0.469   3.536
  261SOL    HW1 3995   1.374   0.512   3.624
  261SOL    HW2 3996   1.472   0.407   3.545
  262SOL     OW 3997   0.973   0.890   3.434
  262SOL    HW1 3998   1.019   0.806   3.405
  262SOL    HW2 3999   0.917   0.924   3.359
  263SOL     OW 4000   0.991   0.410   3.104
  263SOL    HW1 4001   0.914   0.444   3.158
  263SOL    HW2 4002   0.957   0.359   3.025
  264SOL     OW 4003   1.041   0.701   2.291
  264SOL    HW1 4004   1.067   0.697   2.387
  264SOL    HW2 4005   0.956   0.650   2.277
  265SOL     OW 4006   0.076   0.811   2.651
  265SOL    HW1 4007   0.175   0.799   2.660
  265SOL    HW2 4008   0.052   0.906   2.672
  266SOL     OW 4009   0.130   1.821   3.433
  266SOL    HW1 4010   0.120   1.806   3.532
  266SOL    HW2 4011   0.044   1.857   3.397
  267SOL     OW 4012   0.865   0.348   2.057
  267SOL    HW1 4013   0.924   0.411   2.008
  267SOL    HW2 4014   0.884   0.254   2.028
  268SOL     OW 4015   1.719   0.585   3.693
  268SOL    HW1 4016   1.693   0.674   3.657
  268SOL    HW2 4017   1.717   0.517   3.620
  269SOL     OW 4018   0.550   0.196   2.747
  269SOL    HW1 4019   0.545   0.191   2.847
  269SOL    HW2 4020   0.552   0.292   2.718
  270SOL     OW 4021   0.351   1.801   2.715
  270SOL    HW1 4022   0.401   1.715   2.721
  270SOL    HW2 4023   0.416   1.878   2.712
  271SOL     OW 4024   0.321   0.943   2.104
  271SOL    HW1 4025   0.403   0.982   2.062
  271SOL    HW2 4026   0.294   0.861   2.055
  272SOL     OW 4027   1.458   0.735   2.590
  272SOL    HW1 4028   1.453   0.670   2.665
  272SOL    HW2 4029   1.538   0.794   2.603
  273SOL     OW 4030   0.461   1.266   3.589
  273SOL    HW1 4031   0.411   1.267   3.503
  273SOL    HW2 4032   0.398   1.248   3.665
  274SOL     OW 4033   0.202   0.285   3.360
  274SOL    HW1 4034   0.122   0.345   3.347
  274SOL    HW2 4035   0.192   0.236   3.446
  275SOL     OW 4036   0.464   1.743   2.185
  275SOL    HW1 4037   0.497   1.782   2.271
  275SOL    HW2 4038   0.540   1.736   2.120
  276SOL     OW 4039   1.400   0.107   2.288
  276SOL    HW1 4040   1.376   0.070   2.198
  276SOL    HW2 4041   1.499   0.123   2.292
  277SOL     OW 4042   0.249   1.785   3.103
  277SOL    HW1 4043   0.306   1.720   3.153
  277SOL    HW2 4044   0.233   1.752   3.010
  278SOL     OW 4045   0.382   0.700   2.342
  278SOL    HW1 4046   0.427   0.610   2.339
  278SOL    HW2 4047   0.288   0.689   2.375
  279SOL     OW 4048   1.547   0.222   3.591
  279SOL    HW1 4049   1.542   0.259   3.683
  279SOL    HW2 4050   1.475   0.153   3.579
  280SOL     OW 4051   0.614   0.122   1.979
  280SOL    HW1 4052   0.712   0.100   1.986
  280SOL    HW2 4053   0.583   0.105   1.886
  281SOL     OW 4054   0.781   0.264   3.611
  281SOL    HW1 4055   0.848   0.203   3.654
  281SOL    HW2 4056   0.708   0.283   3.676
  282SOL     OW 4057   1.351   0.590   3.295
  282SOL    HW1 4058   1.379   0.547   3.380
  282SOL    HW2 4059   1.376   0.686   3.296
  283SOL     OW 4060   0.922   0.503   2.761
  283SOL    HW1 4061   0.897   0.494   2.665
  283SOL    HW2 4062   0.970   0.421   2.792
  284SOL     OW 4063   0.539   0.064   2.374
  284SOL    HW1 4064   0.458   0.065   2.432
  284SOL    HW2 4065   0.542   0.147   2.319
  285SOL     OW 4066   0.297   0.035   2.033
  285SOL    HW1 4067   0.346   0.119   2.012
  285SOL    HW2 4068   0.359  -0.030   2.078
  286SOL     OW 4069   0.935   0.236   2.342
  286SOL    HW1 4070   0.887   0.277   2.264
  286SOL    HW2 4071   1.034   0.234   2.323
  287SOL     OW 4072   1.076   0.683   3.326
  287SOL    HW1 4073   0.996   0.622   3.329
  287SOL    HW2 4074   1.157   0.630   3.302
  288SOL     OW 4075   0.459   1.152   2.603
  288SOL    HW1 4076   0.388   1.125   2.668
  288SOL    HW2 4077   0.433   1.124   2.510
  289SOL     OW 4078   1.032   0.549   1.878
  289SOL    HW1 4079   0.991   0.631   1.839
  289SOL    HW2 4080   1.096   0.575   1.951
  290SOL     OW 4081   0.078   0.556   3.248
  290SOL    HW1 4082   0.170   0.555   3.207
  290SOL    HW2 4083   0.072   0.630   3.315
  291SOL     OW 4084   0.561   0.222   3.009
  291SOL    HW1 4085   0.599   0.138   3.046
  291SOL    HW2 4086   0.473   0.241   3.053
  292SOL     OW 4087   0.866   0.454   2.504
  292SOL    HW1 4088   0.834   0.526   2.442
  292SOL    HW2 4089   0.890   0.373   2.451
  293SOL     OW 4090   1.017   0.039   2.615
  293SOL    HW1 4091   0.945   0.044   2.546
  293SOL    HW2 4092   0.993  -0.030   2.684
  294SOL     OW 4093   1.466   0.590   2.854
  294SOL    HW1 4094   1.436   0.495   2.861
  294SOL    HW2 4095   1.539   0.606   2.920
  295SOL     OW 4096   0.488   1.385   2.036
  295SOL    HW1 4097   0.401   1.370   2.083
  295SOL    HW2 4098   0.471   1.411   1.941
  296SOL     OW 4099   1.390   0.575   1.940
  296SOL    HW1 4100   1.336   0.554   2.021
  296SOL    HW2 4101   1.481   0.534   1.949
  297SOL     OW 4102   0.527   0.256   2.190
  297SOL    HW1 4103   0.554   0.197   2.115
  297SOL    HW2 4104   0.527   0.351   2.159
  298SOL     OW 4105   1.754   1.223   3.450
  298SOL    HW1 4106   1.845   1.184   3.437
  298SOL    HW2 4107   1.762   1.319   3.474
  299SOL     OW 4108   0.915   0.089   3.264
  299SOL    HW1 4109   0.940   0.069   3.169
  299SOL    HW2 4110   0.987   0.145   3.306
  300SOL     OW 4111   0.980   1.116   3.581
  300SOL    HW1 4112   0.881   1.122   3.591
  300SOL    HW2 4113   1.003   1.036   3.525
  301SOL     OW 4114   0.705   1.050   2.230
  301SOL    HW1 4115   0.691   1.057   2.329
  301SOL    HW2 4116   0.789   0.999   2.212
  302SOL     OW 4117   0.410   0.813   3.113
  302SOL    HW1 4118   0.496   0.825   3.163
  302SOL    HW2 4119   0.368   0.726   3.140
  303SOL     OW 4120   1.274   0.386   3.124
  303SOL    HW1 4121   1.295   0.460   3.188
  303SOL    HW2 4122   1.185   0.403   3.081
  304SOL     OW 4123   0.064   1.564   3.193
  304SOL    HW1 4124   0.018   1.646   3.159
  304SOL    HW2 4125   0.162   1.583   3.202
  305SOL     OW 4126   0.367   1.100   2.363
  305SOL    HW1 4127   0.360   1.183   2.307
  305SOL    HW2 4128   0.371   1.020   2.303
  306SOL     OW 4129   0.566   0.537   2.727
  306SOL    HW1 4130   0.578   0.603   2.653
  306SOL    HW2 4131   0.612   0.571   2.810
  307SOL     OW 4132   1.582   0.639   2.334
  307SOL    HW1 4133   1.551   0.700   2.407
  307SOL    HW2 4134   1.632   0.691   2.265
  308SOL     OW 4135   0.354   1.510   3.191
  308SOL    HW1 4136   0.333   1.466   3.104
  308SOL    HW2 4137   0.451   1.536   3.194
  309SOL     OW 4138   0.402   0.751   3.460
  309SOL    HW1 4139   0.470   0.806   3.413
  309SOL    HW2 4140   0.442   0.663   3.487
  310SOL     OW 4141   1.587   0.779   3.532
  310SOL    HW1 4142   1.495   0.817   3.527
  310SOL    HW2 4143   1.647   0.826   3.467
  311SOL     OW 4144   1.013   0.105   3.632
  311SOL    HW1 4145   1.019   0.190   3.580
  311SOL    HW2 4146   1.045   0.029   3.575
  312SOL     OW 4147   0.504   0.050   3.602
  312SOL    HW1 4148   0.462  -0.007   3.532
  312SOL    HW2 4149   0.438   0.119   3.634
  313SOL     OW 4150   0.573   0.870   2.891
  313SOL    HW1 4151   0.617   0.959   2.882
  313SOL    HW2 4152   0.510   0.870   2.968
  314SOL     OW 4153   1.360   0.862   2.907
  314SOL    HW1 4154   1.285   0.862   2.841
  314SOL    HW2 4155   1.397   0.770   2.916
  315SOL     OW 4156   1.209   0.525   2.137
  315SOL    HW1 4157   1.222   0.441   2.191
  315SOL    HW2 4158   1.180   0.599   2.197
  316SOL     OW 4159   0.307   0.213   3.093
  316SOL    HW1 4160   0.284   0.250   3.183
  316SOL    HW2 4161   0.277   0.118   3.087
  317SOL     OW 4162   0.037   1.310   3.144
  317SOL    HW1 4163   0.090   1.261   3.212
  317SOL    HW2 4164   0.059   1.408   3.149
  318SOL     OW 4165   0.732   0.634   2.926
  318SOL    HW1 4166   0.791   0.608   2.850
  318SOL    HW2 4167   0.704   0.730   2.915
  319SOL     OW 4168   1.728   0.935   3.716
  319SOL    HW1 4169   1.682   0.928   3.627
  319SOL    HW2 4170   1.666   0.979   3.782
  320SOL     OW 4171   0.307   0.063   2.480
  320SOL    HW1 4172   0.296   0.157   2.513
  320SOL    HW2 4173   0.302   0.000   2.557
  321SOL     OW 4174   1.622   0.367   2.236
  321SOL    HW1 4175   1.624   0.291   2.300
  321SOL    HW2 4176   1.574   0.444   2.276
  322SOL     OW 4177   1.023   0.766   2.828
  322SOL    HW1 4178   1.038   0.787   2.924
  322SOL    HW2 4179   0.993   0.671   2.819
  323SOL     OW 4180   0.980   1.573   3.562
  323SOL    HW1 4181   0.960   1.617   3.474
  323SOL    HW2 4182   1.019   1.482   3.546
  324SOL     OW 4183   0.350   0.898   3.666
  324SOL    HW1 4184   0.426   0.942   3.714
  324SOL    HW2 4185   0.385   0.851   3.584
  325SOL     OW 4186   1.540   0.274   1.987
  325SOL    HW1 4187   1.479   0.199   2.010
  325SOL    HW2 4188   1.562   0.326   2.070
  326SOL     OW 4189   1.303   0.838   1.904
  326SOL    HW1 4190   1.337   0.745   1.919
  326SOL    HW2 4191   1.321   0.865   1.809
  327SOL     OW 4192   0.319   0.810   2.811
  327SOL    HW1 4193   0.412   0.846   2.816
  327SOL    HW2 4194   0.313   0.725   2.863
  328SOL     OW 4195   0.339   0.509   2.868
  328SOL    HW1 4196   0.287   0.426   2.851
  328SOL    HW2 4197   0.416   0.514   2.804
  329SOL     OW 4198   1.138   0.380   3.540
  329SOL    HW1 4199   1.093   0.443   3.604
  329SOL    HW2 4200   1.231   0.411   3.523
  330SOL     OW 4201   1.160   0.207   3.339
  330SOL    HW1 4202   1.160   0.271   3.416
  330SOL    HW2 4203   1.188   0.255   3.256
  331SOL     OW 4204   0.008   1.326   2.062
  331SOL    HW1 4205  -0.085   1.347   2.031
  331SOL    HW2 4206   0.018   1.227   2.075
  332SOL     OW 4207   1.002   0.796   3.100
  332SOL    HW1 4208   1.043   0.764   3.186
  332SOL    HW2 4209   0.906   0.769   3.097
  333SOL     OW 4210   0.040   0.544   2.976
  333SOL    HW1 4211   0.125   0.511   2.935
  333SOL    HW2 4212   0.053   0.559   3.074
  334SOL     OW 4213   0.189   0.520   3.584
  334SOL    HW1 4214   0.248   0.480   3.514
  334SOL    HW2 4215   0.131   0.591   3.543
  335SOL     OW 4216   1.369   0.950   3.522
  335SOL    HW1 4217   1.408   1.039   3.542
  335SOL    HW2 4218   1.379   0.930   3.425
  336SOL     OW 4219   0.815   0.572   2.187
  336SOL    HW1 4220   0.822   0.483   2.141
  336SOL    HW2 4221   0.721   0.606   2.179
  337SOL     OW 4222   1.657   0.604   3.068
  337SOL    HW1 4223   1.619   0.535   3.130
  337SOL    HW2 4224   1.739   0.568   3.024
  338SOL     OW 4225   0.252   1.564   3.606
  338SOL    HW1 4226   0.222   1.621   3.682
  338SOL    HW2 4227   0.245   1.467   3.632
  339SOL     OW 4228   0.671   0.464   3.131
  339SOL    HW1 4229   0.637   0.375   3.101
  339SOL    HW2 4230   0.697   0.518   3.051
  340SOL     OW 4231   0.930   1.678   3.327
  340SOL    HW1 4232   0.906   1.660   3.232
  340SOL    HW2 4233   0.960   1.772   3.337
  341SOL     OW 4234   0.473   0.500   2.053
  341SOL    HW1 4235   0.534   0.580   2.057
  341SOL    HW2 4236   0.378   0.531   2.060
  342SOL     OW 4237   0.159   1.137   3.328
  342SOL    HW1 4238   0.181   1.076   3.404
  342SOL    HW2 4239   0.169   1.088   3.242
  343SOL     OW 4240   1.347   1.059   3.096
  343SOL    HW1 4241   1.371   0.996   3.022
  343SOL    HW2 4242   1.257   1.099   3.078
  344SOL     OW 4243   1.302   0.855   2.171
  344SOL    HW1 4244   1.216   0.824   2.213
  344SOL    HW2 4245   1.298   0.841   2.072
  345SOL     OW 4246   0.083   1.258   2.884
  345SOL    HW1 4247   0.078   1.257   2.984
  345SOL    HW2 4248   0.000   1.217   2.846
  346SOL     OW 4249   0.688   1.662   3.578
  346SOL    HW1 4250   0.632   1.743   3.587
  346SOL    HW2 4251   0.740   1.666   3.492
  347SOL     OW 4252   1.726   0.135   2.385
  347SOL    HW1 4253   1.799   0.118   2.318
  347SOL    HW2 4254   1.695   0.048   2.423
  348SOL     OW 4255   0.130   1.794   3.713
  348SOL    HW1 4256   0.089   1.720   3.766
  348SOL    HW2 4257   0.194   1.845   3.771
  349SOL     OW 4258   1.280   0.927   2.534
  349SOL    HW1 4259   1.340   0.846   2.536
  349SOL    HW2 4260   1.320   0.996   2.474
  350SOL     OW 4261   0.830   1.273   3.284
  350SOL    HW1 4262   0.825   1.306   3.379
  350SOL    HW2 4263   0.744   1.292   3.238
  351SOL     OW 4264   0.672   1.616   2.016
  351SOL    HW1 4265   0.681   1.626   1.917
  351SOL    HW2 4266   0.632   1.527   2.037
  352SOL     OW 4267   1.841   0.175   2.825
  352SOL    HW1 4268   1.880   0.090   2.789
  352SOL    HW2 4269   1.743   0.177   2.806
  353SOL     OW 4270   0.263   0.326   2.582
  353SOL    HW1 4271   0.184   0.377   2.548
  353SOL    HW2 4272   0.254   0.311   2.680
  354SOL     OW 4273   0.822   1.002   3.234
  354SOL    HW1 4274   0.862   1.001   3.142
  354SOL    HW2 4275   0.832   1.094   3.274
  355SOL     OW 4276   0.916   0.910   2.153
  355SOL    HW1 4277   0.979   0.948   2.085
  355SOL    HW2 4278   0.956   0.827   2.192
  356SOL     OW 4279   0.372   1.288   3.352
  356SOL    HW1 4280   0.359   1.381   3.318
  356SOL    HW2 4281   0.288   1.236   3.339
  357SOL     OW 4282   1.039   1.098   2.558
  357SOL    HW1 4283   0.969   1.051   2.612
  357SOL    HW2 4284   1.098   1.030   2.515
  358SOL     OW 4285   1.014   0.236   2.833
  358SOL    HW1 4286   1.006   0.200   2.740
  358SOL    HW2 4287   1.012   0.160   2.898
  359SOL     OW 4288   0.590   1.487   2.353
  359SOL    HW1 4289   0.632   1.429   2.283
  359SOL    HW2 4290   0.546   1.566   2.309
  360SOL     OW 4291   1.709   0.385   3.243
  360SOL    HW1 4292   1.782   0.454   3.247
  360SOL    HW2 4293   1.737   0.310   3.184
  361SOL     OW 4294   0.255   1.348   2.152
  361SOL    HW1 4295   0.159   1.349   2.125
  361SOL    HW2 4296   0.267   1.401   2.236
  362SOL     OW 4297   0.105   1.013   3.588
  362SOL    HW1 4298   0.028   0.980   3.642
  362SOL    HW2 4299   0.190   0.983   3.630
  363SOL     OW 4300   0.672   0.203   3.351
  363SOL    HW1 4301   0.762   0.187   3.311
  363SOL    HW2 4302   0.680   0.208   3.450
  364SOL     OW 4303   0.075   0.345   1.895
  364SOL    HW1 4304  -0.017   0.317   1.866
  364SOL    HW2 4305   0.106   0.422   1.839
  365SOL     OW 4306   1.440   0.856   3.260
  365SOL    HW1 4307   1.383   0.908   3.197
  365SOL    HW2 4308   1.536   0.868   3.236
  366SOL     OW 4309   0.072   0.166   2.180
  366SOL    HW1 4310   0.055   0.249   2.126
  366SOL    HW2 4311   0.162   0.129   2.158
  367SOL     OW 4312   0.613   0.842   3.293
  367SOL    HW1 4313   0.669   0.923   3.276
  367SOL    HW2 4314   0.672   0.762   3.296
  368SOL     OW 4315   0.716   0.565   3.570
  368SOL    HW1 4316   0.735   0.630   3.644
  368SOL    HW2 4317   0.776   0.485   3.579
  369SOL     OW 4318   1.450   1.220   3.495
  369SOL    HW1 4319   1.441   1.210   3.594
  369SOL    HW2 4320   1.546   1.213   3.469
  370SOL     OW 4321   0.390   1.741   3.422
  370SOL    HW1 4322   0.299   1.782   3.420
  370SOL    HW2 4323   0.383   1.647   3.454
  371SOL     OW 4324   1.674   0.883   3.116
  371SOL    HW1 4325   1.647   0.794   3.079
  371SOL    HW2 4326   1.675   0.951   3.043
  372SOL     OW 4327   1.225   0.325   2.311
  372SOL    HW1 4328   1.290   0.251   2.300
  372SOL    HW2 4329   1.245   0.375   2.395
  373SOL     OW 4330   0.594   0.745   2.514
  373SOL    HW1 4331   0.644   0.830   2.495
  373SOL    HW2 4332   0.506   0.747   2.466
  374SOL     OW 4333   1.730   0.934   3.379
  374SOL    HW1 4334   1.768   1.025   3.394
  374SOL    HW2 4335   1.722   0.917   3.280
  375SOL     OW 4336   0.859   0.956   2.723
  375SOL    HW1 4337   0.913   0.887   2.771
  375SOL    HW2 4338   0.827   1.025   2.789
  376SOL     OW 4339   1.083   0.984   1.949
  376SOL    HW1 4340   1.060   1.037   1.867
  376SOL    HW2 4341   1.164   0.928   1.930
  377SOL     OW 4342   0.221   1.314   3.706
  377SOL    HW1 4343   0.156   1.241   3.685
  377SOL    HW2 4344   0.225   1.328   3.804
  378SOL     OW 4345   0.079   1.240   2.515
  378SOL    HW1 4346   0.078   1.193   2.603
  378SOL    HW2 4347   0.161   1.212   2.464
  379SOL     OW 4348   0.672   1.391   3.486
  379SOL    HW1 4349   0.594   1.341   3.524
  379SOL    HW2 4350   0.669   1.486   3.517
  380SOL     OW 4351   1.824   0.192   3.089
  380SOL    HW1 4352   1.820   0.102   3.133
  380SOL    HW2 4353   1.827   0.181   2.990
  381SOL     OW 4354   0.428   0.424   2.382
  381SOL    HW1 4355   0.458   0.352   2.320
  381SOL    HW2 4356   0.389   0.384   2.465
  382SOL     OW 4357   0.317   0.547   3.142
  382SOL    HW1 4358   0.355   0.488   3.214
  382SOL    HW2 4359   0.357   0.521   3.054
  383SOL     OW 4360   1.424   0.214   2.974
  383SOL    HW1 4361   1.476   0.149   3.029
  383SOL    HW2 4362   1.375   0.277   3.035
  384SOL     OW 4363   1.001   0.034   3.016
  384SOL    HW1 4364   0.938  -0.038   2.985
  384SOL    HW2 4365   1.094  -0.002   3.016
  385SOL     OW 4366   0.618   1.567   3.146
  385SOL    HW1 4367   0.613   1.649   3.203
  385SOL    HW2 4368   0.707   1.564   3.101
  386SOL     OW 4369   1.352   0.052   2.030
  386SOL    HW1 4370   1.387   0.011   1.946
  386SOL    HW2 4371   1.262   0.014   2.050
  387SOL     OW 4372   1.300   0.453   2.553
  387SOL    HW1 4373   1.241   0.533   2.557
  387SOL    HW2 4374   1.315   0.418   2.646
  388SOL     OW 4375   1.593   0.221   2.744
  388SOL    HW1 4376   1.509   0.220   2.798
  388SOL    HW2 4377   1.595   0.304   2.688
  389SOL     OW 4378   0.039   1.077   2.162
  389SOL    HW1 4379   0.138   1.066   2.153
  389SOL    HW2 4380  -0.001   0.991   2.194
  390SOL     OW 4381   0.875   1.646   2.199
  390SOL    HW1 4382   0.798   1.611   2.145
  390SOL    HW2 4383   0.843   1.717   2.261
  391SOL     OW 4384   0.230   0.628   3.837
  391SOL    HW1 4385   0.137   0.626   3.874
  391SOL    HW2 4386   0.231   0.589   3.745
  392SOL     OW 4387   0.225   0.275   4.720
  392SOL    HW1 4388   0.260   0.258   4.812
  392SOL    HW2 4389   0.137   0.230   4.708
  393SOL     OW 4390   0.019   0.368   4.371
  393SOL    HW1 4391  -0.063   0.411   4.410
  393SOL    HW2 4392  -0.009   0.295   4.308
  394SOL     OW 4393   0.569   1.275   4.889
  394SOL    HW1 4394   0.476   1.268   4.852
  394SOL    HW2 4395   0.580   1.364   4.933
  395SOL     OW 4396   1.555   1.511   4.427
  395SOL    HW1 4397   1.498   1.495   4.508
  395SOL    HW2 4398   1.496   1.521   4.347
  396SOL     OW 4399   1.135   0.703   4.441
  396SOL    HW1 4400   1.192   0.781   4.416
  396SOL    HW2 4401   1.075   0.729   4.517
  397SOL     OW 4402   1.755   0.607   3.955
  397SOL    HW1 4403   1.743   0.594   3.856
  397SOL    HW2 4404   1.725   0.526   4.004
  398SOL     OW 4405   0.768   1.144   4.747
  398SOL    HW1 4406   0.690   1.161   4.807
  398SOL    HW2 4407   0.802   1.231   4.711
  399SOL     OW 4408   0.685   1.012   4.389
  399SOL    HW1 4409   0.754   0.996   4.459
  399SOL    HW2 4410   0.612   1.069   4.427
  400SOL     OW 4411   0.335   1.435   4.785
  400SOL    HW1 4412   0.257   1.404   4.732
  400SOL    HW2 4413   0.393   1.493   4.728
  401SOL     OW 4414   1.603   0.447   4.461
  401SOL    HW1 4415   1.529   0.493   4.411
  401SOL    HW2 4416   1.654   0.515   4.514
  402SOL     OW 4417   0.231   1.713   4.207
  402SOL    HW1 4418   0.265   1.790   4.261
  402SOL    HW2 4419   0.275   1.713   4.117
  403SOL     OW 4420   0.230   1.434   4.262
  403SOL    HW1 4421   0.204   1.530   4.262
  403SOL    HW2 4422   0.159   1.380   4.307
  404SOL     OW 4423   0.240   1.091   4.610
  404SOL    HW1 4424   0.254   1.007   4.662
  404SOL    HW2 4425   0.185   1.155   4.665
  405SOL     OW 4426   0.606   0.964   3.847
  405SOL    HW1 4427   0.613   1.048   3.793
  405SOL    HW2 4428   0.652   0.977   3.935
  406SOL     OW 4429   0.122   0.643   4.287
  406SOL    HW1 4430   0.077   0.555   4.304
  406SOL    HW2 4431   0.121   0.697   4.371
  407SOL     OW 4432   1.842   1.767   4.083
  407SOL    HW1 4433   1.896   1.738   4.163
  407SOL    HW2 4434   1.872   1.857   4.054
  408SOL     OW 4435   0.027   1.596   3.841
  408SOL    HW1 4436   0.008   1.500   3.862
  408SOL    HW2 4437  -0.006   1.654   3.916
  409SOL     OW 4438   1.689   0.922   4.336
  409SOL    HW1 4439   1.784   0.893   4.344
  409SOL    HW2 4440   1.681   0.987   4.261
  410SOL     OW 4441   1.641   1.108   4.156
  410SOL    HW1 4442   1.727   1.110   4.104
  410SOL    HW2 4443   1.655   1.155   4.244
  411SOL     OW 4444   0.613   1.365   4.450
  411SOL    HW1 4445   0.564   1.278   4.459
  411SOL    HW2 4446   0.590   1.408   4.363
  412SOL     OW 4447   0.809   0.004   4.226
  412SOL    HW1 4448   0.849   0.095   4.217
  412SOL    HW2 4449   0.709   0.012   4.232
  413SOL     OW 4450   0.197   0.976   4.988
  413SOL    HW1 4451   0.286   0.931   4.974
  413SOL    HW2 4452   0.124   0.911   4.969
  414SOL     OW 4453   1.525   0.999   3.914
  414SOL    HW1 4454   1.462   0.923   3.927
  414SOL    HW2 4455   1.573   1.017   4.000
  415SOL     OW 4456   1.466   1.417   4.677
  415SOL    HW1 4457   1.407   1.423   4.757
  415SOL    HW2 4458   1.451   1.329   4.631
  416SOL     OW 4459   1.667   1.714   4.296
  416SOL    HW1 4460   1.626   1.691   4.208
  416SOL    HW2 4461   1.649   1.640   4.361
  417SOL     OW 4462   0.598   0.729   3.994
  417SOL    HW1 4463   0.622   0.798   3.926
  417SOL    HW2 4464   0.520   0.762   4.048
  418SOL     OW 4465   1.281   0.345   4.668
  418SOL    HW1 4466   1.195   0.295   4.655
  418SOL    HW2 4467   1.343   0.291   4.724
  419SOL     OW 4468   1.041   0.701   4.153
  419SOL    HW1 4469   1.067   0.697   4.249
  419SOL    HW2 4470   0.956   0.650   4.139
  420SOL     OW 4471   0.076   0.811   4.513
  420SOL    HW1 4472   0.175   0.799   4.522
  420SOL    HW2 4473   0.052   0.906   4.534
  421SOL     OW 4474   0.130   1.821   5.295
  421SOL    HW1 4475   0.120   1.806   5.394
  421SOL    HW2 4476   0.044   1.857   5.259
  422SOL     OW 4477   0.865   0.348   3.919
  422SOL    HW1 4478   0.924   0.411   3.870
  422SOL    HW2 4479   0.884   0.254   3.890
  423SOL     OW 4480   1.362   1.144   4.269
  423SOL    HW1 4481   1.445   1.115   4.221
  423SOL    HW2 4482   1.313   1.211   4.213
  424SOL     OW 4483   0.550   0.196   4.609
  424SOL    HW1 4484   0.545   0.191   4.709
  424SOL    HW2 4485   0.552   0.292   4.580
  425SOL     OW 4486   1.008   1.456   4.201
  425SOL    HW1 4487   0.962   1.528   4.149
  425SOL    HW2 4488   1.004   1.476   4.299
  426SOL     OW 4489   0.351   1.801   4.577
  426SOL    HW1 4490   0.401   1.715   4.583
  426SOL    HW2 4491   0.416   1.878   4.574
  427SOL     OW 4492   1.795   1.066   4.597
  427SOL    HW1 4493   1.733   1.051   4.521
  427SOL    HW2 4494   1.743   1.077   4.682
  428SOL     OW 4495   0.321   0.943   3.966
  428SOL    HW1 4496   0.403   0.982   3.924
  428SOL    HW2 4497   0.294   0.861   3.917
  429SOL     OW 4498   1.458   0.735   4.452
  429SOL    HW1 4499   1.453   0.670   4.527
  429SOL    HW2 4500   1.538   0.794   4.465
  430SOL     OW 4501   1.111   1.776   3.961
  430SOL    HW1 4502   1.051   1.714   4.011
  430SOL    HW2 4503   1.142   1.732   3.876
  431SOL     OW 4504   1.632   1.377   3.805
  431SOL    HW1 4505   1.600   1.471   3.795
  431SOL    HW2 4506   1.556   1.314   3.793
  432SOL     OW 4507   0.464   1.743   4.047
  432SOL    HW1 4508   0.497   1.782   4.133
  432SOL    HW2 4509   0.540   1.736   3.982
  433SOL     OW 4510   1.400   0.107   4.150
  433SOL    HW1 4511   1.376   0.070   4.060
  433SOL    HW2 4512   1.499   0.123   4.154
  434SOL     OW 4513   0.249   1.785   4.965
  434SOL    HW1 4514   0.306   1.720   5.015
  434SOL    HW2 4515   0.233   1.752   4.872
  435SOL     OW 4516   0.940   1.698   4.628
  435SOL    HW1 4517   1.020   1.641   4.649
  435SOL    HW2 4518   0.891   1.658   4.551
  436SOL     OW 4519   0.382   0.700   4.204
  436SOL    HW1 4520   0.427   0.610   4.201
  436SOL    HW2 4521   0.288   0.689   4.237
  437SOL     OW 4522   0.614   0.122   3.841
  437SOL    HW1 4523   0.712   0.100   3.848
  437SOL    HW2 4524   0.583   0.105   3.748
  438SOL     OW 4525   0.803   1.402   4.648
  438SOL    HW1 4526   0.893   1.416   4.606
  438SOL    HW2 4527   0.732   1.404   4.577
  439SOL     OW 4528   0.922   0.503   4.623
  439SOL    HW1 4529   0.897   0.494   4.527
  439SOL    HW2 4530   0.970   0.421   4.654
  440SOL     OW 4531   0.539   0.064   4.236
  440SOL    HW1 4532   0.458   0.065   4.294
  440SOL    HW2 4533   0.542   0.147   4.181
  441SOL     OW 4534   1.434   1.188   3.765
  441SOL    HW1 4535   1.466   1.112   3.822
  441SOL    HW2 4536   1.342   1.215   3.795
  442SOL     OW 4537   0.297   0.035   3.895
  442SOL    HW1 4538   0.346   0.119   3.874
  442SOL    HW2 4539   0.359  -0.030   3.940
  443SOL     OW 4540   0.935   0.236   4.204
  443SOL    HW1 4541   0.887   0.277   4.126
  443SOL    HW2 4542   1.034   0.234   4.185
  444SOL     OW 4543   1.227   1.570   4.517
  444SOL    HW1 4544   1.248   1.644   4.452
  444SOL    HW2 4545   1.295   1.570   4.590
  445SOL     OW 4546   0.459   1.152   4.465
  445SOL    HW1 4547   0.388   1.125   4.530
  445SOL    HW2 4548   0.433   1.124   4.372
  446SOL     OW 4549   1.271   1.797   4.315
  446SOL    HW1 4550   1.315   1.861   4.251
  446SOL    HW2 4551   1.221   1.849   4.385
  447SOL     OW 4552   1.032   0.549   3.740
  447SOL    HW1 4553   0.991   0.631   3.701
  447SOL    HW2 4554   1.096   0.575   3.813
  448SOL     OW 4555   0.866   0.454   4.366
  448SOL    HW1 4556   0.834   0.526   4.304
  448SOL    HW2 4557   0.890   0.373   4.313
  449SOL     OW 4558   1.017   0.039   4.477
  449SOL    HW1 4559   0.945   0.044   4.408
  449SOL    HW2 4560   0.993  -0.030   4.546
  450SOL     OW 4561   1.429   1.173   4.591
  450SOL    HW1 4562   1.374   1.089   4.584
  450SOL    HW2 4563   1.455   1.202   4.499
  451SOL     OW 4564   1.466   0.590   4.716
  451SOL    HW1 4565   1.436   0.495   4.723
  451SOL    HW2 4566   1.539   0.606   4.782
  452SOL     OW 4567   1.857   0.833   4.101
  452SOL    HW1 4568   1.899   0.769   4.165
  452SOL    HW2 4569   1.819   0.782   4.023
  453SOL     OW 4570   0.488   1.385   3.898
  453SOL    HW1 4571   0.401   1.370   3.945
  453SOL    HW2 4572   0.471   1.411   3.803
  454SOL     OW 4573   1.664   1.280   4.381
  454SOL    HW1 4574   1.763   1.288   4.395
  454SOL    HW2 4575   1.619   1.364   4.412
  455SOL     OW 4576   1.390   0.575   3.802
  455SOL    HW1 4577   1.336   0.554   3.883
  455SOL    HW2 4578   1.481   0.534   3.811
  456SOL     OW 4579   0.527   0.256   4.052
  456SOL    HW1 4580   0.554   0.197   3.977
  456SOL    HW2 4581   0.527   0.351   4.021
  457SOL     OW 4582   1.111   1.195   4.824
  457SOL    HW1 4583   1.071   1.239   4.905
  457SOL    HW2 4584   1.070   1.232   4.741
  458SOL     OW 4585   1.638   1.099   4.803
  458SOL    HW1 4586   1.643   1.180   4.862
  458SOL    HW2 4587   1.552   1.101   4.752
  459SOL     OW 4588   0.705   1.050   4.092
  459SOL    HW1 4589   0.691   1.057   4.191
  459SOL    HW2 4590   0.789   0.999   4.074
  460SOL     OW 4591   0.410   0.813   4.975
  460SOL    HW1 4592   0.496   0.825   5.025
  460SOL    HW2 4593   0.368   0.726   5.002
  461SOL     OW 4594   0.367   1.100   4.225
  461SOL    HW1 4595   0.360   1.183   4.169
  461SOL    HW2 4596   0.371   1.020   4.165
  462SOL     OW 4597   0.566   0.537   4.589
  462SOL    HW1 4598   0.578   0.603   4.515
  462SOL    HW2 4599   0.612   0.571   4.672
  463SOL     OW 4600   1.252   1.348   4.112
  463SOL    HW1 4601   1.302   1.425   4.152
  463SOL    HW2 4602   1.157   1.350   4.144
  464SOL     OW 4603   1.272   1.445   4.866
  464SOL    HW1 4604   1.319   1.458   4.953
  464SOL    HW2 4605   1.206   1.371   4.875
  465SOL     OW 4606   1.582   0.639   4.196
  465SOL    HW1 4607   1.551   0.700   4.269
  465SOL    HW2 4608   1.632   0.691   4.127
  466SOL     OW 4609   0.573   0.870   4.753
  466SOL    HW1 4610   0.617   0.959   4.744
  466SOL    HW2 4611   0.510   0.870   4.830
  467SOL     OW 4612   1.360   0.862   4.769
  467SOL    HW1 4613   1.285   0.862   4.703
  467SOL    HW2 4614   1.397   0.770   4.778
  468SOL     OW 4615   1.209   0.525   3.999
  468SOL    HW1 4616   1.222   0.441   4.053
  468SOL    HW2 4617   1.180   0.599   4.059
  469SOL     OW 4618   0.307   0.213   4.955
  469SOL    HW1 4619   0.284   0.250   5.045
  469SOL    HW2 4620   0.277   0.118   4.949
  470SOL     OW 4621   0.037   1.310   5.006
  470SOL    HW1 4622   0.090   1.261   5.074
  470SOL    HW2 4623   0.059   1.408   5.011
  471SOL     OW 4624   0.732   0.634   4.788
  471SOL    HW1 4625   0.791   0.608   4.712
  471SOL    HW2 4626   0.704   0.730   4.777
  472SOL     OW 4627   0.307   0.063   4.342
  472SOL    HW1 4628   0.296   0.157   4.375
  472SOL    HW2 4629   0.302   0.000   4.419
  473SOL     OW 4630   1.622   0.367   4.098
  473SOL    HW1 4631   1.624   0.291   4.162
  473SOL    HW2 4632   1.574   0.444   4.138
  474SOL     OW 4633   1.023   0.766   4.690
  474SOL    HW1 4634   1.038   0.787   4.786
  474SOL    HW2 4635   0.993   0.671   4.681
  475SOL     OW 4636   1.540   0.274   3.849
  475SOL    HW1 4637   1.479   0.199   3.872
  475SOL    HW2 4638   1.562   0.326   3.932
  476SOL     OW 4639   1.303   0.838   3.766
  476SOL    HW1 4640   1.337   0.745   3.781
  476SOL    HW2 4641   1.321   0.865   3.671
  477SOL     OW 4642   1.068   1.333   4.573
  477SOL    HW1 4643   1.075   1.249   4.518
  477SOL    HW2 4644   1.130   1.402   4.537
  478SOL     OW 4645   0.319   0.810   4.673
  478SOL    HW1 4646   0.412   0.846   4.678
  478SOL    HW2 4647   0.313   0.725   4.725
  479SOL     OW 4648   0.339   0.509   4.730
  479SOL    HW1 4649   0.287   0.426   4.713
  479SOL    HW2 4650   0.416   0.514   4.666
  480SOL     OW 4651   1.160   0.207   5.201
  480SOL    HW1 4652   1.160   0.271   5.278
  480SOL    HW2 4653   1.188   0.255   5.118
  481SOL     OW 4654   0.008   1.326   3.924
  481SOL    HW1 4655  -0.085   1.347   3.893
  481SOL    HW2 4656   0.018   1.227   3.937
  482SOL     OW 4657   0.088   1.801   4.651
  482SOL    HW1 4658   0.046   1.715   4.624
  482SOL    HW2 4659   0.182   1.804   4.617
  483SOL     OW 4660   0.504   1.568   4.634
  483SOL    HW1 4661   0.570   1.642   4.643
  483SOL    HW2 4662   0.548   1.489   4.592
  484SOL     OW 4663   1.002   0.796   4.962
  484SOL    HW1 4664   1.043   0.764   5.048
  484SOL    HW2 4665   0.906   0.769   4.959
  485SOL     OW 4666   0.040   0.544   4.838
  485SOL    HW1 4667   0.125   0.511   4.797
  485SOL    HW2 4668   0.053   0.559   4.936
  486SOL     OW 4669   0.815   0.572   4.049
  486SOL    HW1 4670   0.822   0.483   4.003
  486SOL    HW2 4671   0.721   0.606   4.041
  487SOL     OW 4672   1.657   0.604   4.930
  487SOL    HW1 4673   1.619   0.535   4.992
  487SOL    HW2 4674   1.739   0.568   4.886
  488SOL     OW 4675   0.671   0.464   4.993
  488SOL    HW1 4676   0.637   0.375   4.963
  488SOL    HW2 4677   0.697   0.518   4.913
  489SOL     OW 4678   0.473   0.500   3.915
  489SOL    HW1 4679   0.534   0.580   3.919
  489SOL    HW2 4680   0.378   0.531   3.922
  490SOL     OW 4681   1.347   1.059   4.958
  490SOL    HW1 4682   1.371   0.996   4.884
  490SOL    HW2 4683   1.257   1.099   4.940
  491SOL     OW 4684   1.302   0.855   4.033
  491SOL    HW1 4685   1.216   0.824   4.075
  491SOL    HW2 4686   1.298   0.841   3.934
  492SOL     OW 4687   1.759   1.747   4.878
  492SOL    HW1 4688   1.820   1.777   4.805
  492SOL    HW2 4689   1.721   1.658   4.856
  493SOL     OW 4690   0.083   1.258   4.746
  493SOL    HW1 4691   0.078   1.257   4.846
  493SOL    HW2 4692   0.000   1.217   4.708
  494SOL     OW 4693   1.726   0.135   4.247
  494SOL    HW1 4694   1.799   0.118   4.180
  494SOL    HW2 4695   1.695   0.048   4.285
  495SOL     OW 4696   1.388   1.573   4.201
  495SOL    HW1 4697   1.455   1.585   4.127
  495SOL    HW2 4698   1.348   1.662   4.224
  496SOL     OW 4699   1.280   0.927   4.396
  496SOL    HW1 4700   1.340   0.846   4.398
  496SOL    HW2 4701   1.320   0.996   4.336
  497SOL     OW 4702   0.672   1.616   3.878
  497SOL    HW1 4703   0.681   1.626   3.779
  497SOL    HW2 4704   0.632   1.527   3.899
  498SOL     OW 4705   1.650   1.720   5.118
  498SOL    HW1 4706   1.703   1.730   5.034
  498SOL    HW2 4707   1.623   1.810   5.152
  499SOL     OW 4708   1.841   0.175   4.687
  499SOL    HW1 4709   1.880   0.090   4.651
  499SOL    HW2 4710   1.743   0.177   4.668
  500SOL     OW 4711   0.263   0.326   4.444
  500SOL    HW1 4712   0.184   0.377   4.410
  500SOL    HW2 4713   0.254   0.311   4.542
  501SOL     OW 4714   1.194   1.612   3.755
  501SOL    HW1 4715   1.200   1.519   3.792
  501SOL    HW2 4716   1.135   1.612   3.675
  502SOL     OW 4717   0.822   1.002   5.096
  502SOL    HW1 4718   0.862   1.001   5.004
  502SOL    HW2 4719   0.832   1.094   5.136
  503SOL     OW 4720   0.916   0.910   4.015
  503SOL    HW1 4721   0.979   0.948   3.947
  503SOL    HW2 4722   0.956   0.827   4.054
  504SOL     OW 4723   1.504   1.607   3.768
  504SOL    HW1 4724   1.412   1.644   3.775
  504SOL    HW2 4725   1.542   1.627   3.678
  505SOL     OW 4726   1.039   1.098   4.420
  505SOL    HW1 4727   0.969   1.051   4.474
  505SOL    HW2 4728   1.098   1.030   4.377
  506SOL     OW 4729   1.014   0.236   4.695
  506SOL    HW1 4730   1.006   0.200   4.602
  506SOL    HW2 4731   1.012   0.160   4.760
  507SOL     OW 4732   0.590   1.487   4.215
  507SOL    HW1 4733   0.632   1.429   4.145
  507SOL    HW2 4734   0.546   1.566   4.171
  508SOL     OW 4735   1.709   0.385   5.105
  508SOL    HW1 4736   1.782   0.454   5.109
  508SOL    HW2 4737   1.737   0.310   5.046
  509SOL     OW 4738   0.255   1.348   4.014
  509SOL    HW1 4739   0.159   1.349   3.987
  509SOL    HW2 4740   0.267   1.401   4.098
  510SOL     OW 4741   0.075   0.345   3.757
  510SOL    HW1 4742  -0.017   0.317   3.728
  510SOL    HW2 4743   0.106   0.422   3.701
  511SOL     OW 4744   1.183   1.335   3.843
  511SOL    HW1 4745   1.084   1.324   3.845
  511SOL    HW2 4746   1.217   1.350   3.936
  512SOL     OW 4747   1.493   1.767   4.683
  512SOL    HW1 4748   1.526   1.831   4.614
  512SOL    HW2 4749   1.559   1.761   4.758
  513SOL     OW 4750   1.674   0.883   4.978
  513SOL    HW1 4751   1.647   0.794   4.941
  513SOL    HW2 4752   1.675   0.951   4.905
  514SOL     OW 4753   1.225   0.325   4.173
  514SOL    HW1 4754   1.290   0.251   4.162
  514SOL    HW2 4755   1.245   0.375   4.257
  515SOL     OW 4756   0.594   0.745   4.376
  515SOL    HW1 4757   0.644   0.830   4.357
  515SOL    HW2 4758   0.506   0.747   4.328
  516SOL     OW 4759   1.730   0.934   5.241
  516SOL    HW1 4760   1.768   1.025   5.256
  516SOL    HW2 4761   1.722   0.917   5.142
  517SOL     OW 4762   0.859   1.374   3.740
  517SOL    HW1 4763   0.813   1.389   3.828
  517SOL    HW2 4764   0.903   1.459   3.710
  518SOL     OW 4765   0.661   1.790   4.677
  518SOL    HW1 4766   0.615   1.878   4.664
  518SOL    HW2 4767   0.760   1.802   4.670
  519SOL     OW 4768   0.859   0.956   4.585
  519SOL    HW1 4769   0.913   0.887   4.633
  519SOL    HW2 4770   0.827   1.025   4.651
  520SOL     OW 4771   1.083   0.984   3.811
  520SOL    HW1 4772   1.060   1.037   3.729
  520SOL    HW2 4773   1.164   0.928   3.792
  521SOL     OW 4774   1.861   1.569   4.575
  521SOL    HW1 4775   1.790   1.557   4.505
  521SOL    HW2 4776   1.862   1.490   4.635
  522SOL     OW 4777   0.079   1.240   4.377
  522SOL    HW1 4778   0.078   1.193   4.465
  522SOL    HW2 4779   0.161   1.212   4.326
  523SOL     OW 4780   1.824   0.192   4.951
  523SOL    HW1 4781   1.820   0.102   4.995
  523SOL    HW2 4782   1.827   0.181   4.852
  524SOL     OW 4783   0.428   0.424   4.244
  524SOL    HW1 4784   0.458   0.352   4.182
  524SOL    HW2 4785   0.389   0.384   4.327
  525SOL     OW 4786   1.705   1.487   4.828
  525SOL    HW1 4787   1.612   1.462   4.801
  525SOL    HW2 4788   1.731   1.437   4.910
  526SOL     OW 4789   0.812   1.586   4.411
  526SOL    HW1 4790   0.844   1.596   4.317
  526SOL    HW2 4791   0.733   1.524   4.413
  527SOL     OW 4792   1.424   0.214   4.836
  527SOL    HW1 4793   1.476   0.149   4.891
  527SOL    HW2 4794   1.375   0.277   4.897
  528SOL     OW 4795   1.001   0.034   4.878
  528SOL    HW1 4796   0.938  -0.038   4.847
  528SOL    HW2 4797   1.094  -0.002   4.878
  529SOL     OW 4798   0.770   1.330   4.025
  529SOL    HW1 4799   0.724   1.243   4.042
  529SOL    HW2 4800   0.861   1.327   4.066
  530SOL     OW 4801   1.352   0.052   3.892
  530SOL    HW1 4802   1.387   0.011   3.808
  530SOL    HW2 4803   1.262   0.014   3.912
  531SOL     OW 4804   1.300   0.453   4.415
  531SOL    HW1 4805   1.241   0.533   4.419
  531SOL    HW2 4806   1.315   0.418   4.508
  532SOL     OW 4807   1.593   0.221   4.606
  532SOL    HW1 4808   1.509   0.220   4.660
  532SOL    HW2 4809   1.595   0.304   4.550
  533SOL     OW 4810   0.039   1.077   4.024
  533SOL    HW1 4811   0.138   1.066   4.015
  533SOL    HW2 4812  -0.001   0.991   4.056
  534SOL     OW 4813   0.875   1.646   4.061
  534SOL    HW1 4814   0.798   1.611   4.007
  534SOL    HW2 4815   0.843   1.717   4.123
  535SOL     OW 4816   0.230   2.490   0.113
  535SOL    HW1 4817   0.137   2.488   0.150
  535SOL    HW2 4818   0.231   2.451   0.021
  536SOL     OW 4819   0.225   2.137   0.996
  536SOL    HW1 4820   0.260   2.120   1.088
  536SOL    HW2 4821   0.137   2.092   0.984
  537SOL     OW 4822   0.019   2.230   0.647
  537SOL    HW1 4823  -0.063   2.273   0.686
  537SOL    HW2 4824  -0.009   2.157   0.584
  538SOL     OW 4825   0.569   3.137   1.165
  538SOL    HW1 4826   0.476   3.130   1.128
  538SOL    HW2 4827   0.580   3.226   1.209
  539SOL     OW 4828   1.555   3.373   0.703
  539SOL    HW1 4829   1.498   3.357   0.784
  539SOL    HW2 4830   1.496   3.383   0.623
  540SOL     OW 4831   1.135   2.565   0.717
  540SOL    HW1 4832   1.192   2.643   0.692
  540SOL    HW2 4833   1.075   2.591   0.793
  541SOL     OW 4834   1.755   2.469   0.231
  541SOL    HW1 4835   1.743   2.456   0.132
  541SOL    HW2 4836   1.725   2.388   0.280
  542SOL     OW 4837   0.768   3.006   1.023
  542SOL    HW1 4838   0.690   3.023   1.083
  542SOL    HW2 4839   0.802   3.093   0.987
  543SOL     OW 4840   0.850   2.660   1.823
  543SOL    HW1 4841   0.846   2.736   1.888
  543SOL    HW2 4842   0.872   2.696   1.732
  544SOL     OW 4843   0.685   2.874   0.665
  544SOL    HW1 4844   0.754   2.858   0.735
  544SOL    HW2 4845   0.612   2.931   0.703
  545SOL     OW 4846   0.686   3.023   1.803
  545SOL    HW1 4847   0.746   3.102   1.817
  545SOL    HW2 4848   0.600   3.054   1.762
  546SOL     OW 4849   0.335   3.297   1.061
  546SOL    HW1 4850   0.257   3.266   1.008
  546SOL    HW2 4851   0.393   3.355   1.004
  547SOL     OW 4852   1.460   3.367   1.339
  547SOL    HW1 4853   1.484   3.461   1.365
  547SOL    HW2 4854   1.444   3.313   1.421
  548SOL     OW 4855   0.438   2.254   1.499
  548SOL    HW1 4856   0.520   2.198   1.508
  548SOL    HW2 4857   0.357   2.196   1.503
  549SOL     OW 4858   1.603   2.309   0.737
  549SOL    HW1 4859   1.529   2.355   0.687
  549SOL    HW2 4860   1.654   2.377   0.790
  550SOL     OW 4861   0.231   3.575   0.483
  550SOL    HW1 4862   0.265   3.652   0.537
  550SOL    HW2 4863   0.275   3.575   0.393
  551SOL     OW 4864   1.127   3.203   1.690
  551SOL    HW1 4865   1.174   3.203   1.778
  551SOL    HW2 4866   1.079   3.116   1.679
  552SOL     OW 4867   0.230   3.296   0.538
  552SOL    HW1 4868   0.204   3.392   0.538
  552SOL    HW2 4869   0.159   3.242   0.583
  553SOL     OW 4870   0.240   2.953   0.886
  553SOL    HW1 4871   0.254   2.869   0.938
  553SOL    HW2 4872   0.185   3.017   0.941
  554SOL     OW 4873   0.620   3.648   1.439
  554SOL    HW1 4874   0.528   3.631   1.474
  554SOL    HW2 4875   0.648   3.740   1.465
  555SOL     OW 4876   0.606   2.826   0.123
  555SOL    HW1 4877   0.613   2.910   0.069
  555SOL    HW2 4878   0.652   2.839   0.211
  556SOL     OW 4879   0.122   2.505   0.563
  556SOL    HW1 4880   0.077   2.417   0.580
  556SOL    HW2 4881   0.121   2.559   0.647
  557SOL     OW 4882   1.842   3.629   0.359
  557SOL    HW1 4883   1.896   3.600   0.439
  557SOL    HW2 4884   1.872   3.719   0.330
  558SOL     OW 4885   0.027   3.458   0.117
  558SOL    HW1 4886   0.008   3.362   0.138
  558SOL    HW2 4887  -0.006   3.516   0.192
  559SOL     OW 4888   1.689   2.784   0.612
  559SOL    HW1 4889   1.784   2.755   0.620
  559SOL    HW2 4890   1.681   2.849   0.537
  560SOL     OW 4891   1.641   2.970   0.432
  560SOL    HW1 4892   1.727   2.972   0.380
  560SOL    HW2 4893   1.655   3.017   0.520
  561SOL     OW 4894   0.113   2.599   1.597
  561SOL    HW1 4895   0.201   2.586   1.642
  561SOL    HW2 4896   0.100   2.696   1.575
  562SOL     OW 4897   0.613   3.227   0.726
  562SOL    HW1 4898   0.564   3.140   0.735
  562SOL    HW2 4899   0.590   3.270   0.639
  563SOL     OW 4900   1.293   3.090   1.423
  563SOL    HW1 4901   1.330   3.017   1.365
  563SOL    HW2 4902   1.345   3.095   1.508
  564SOL     OW 4903   0.809   1.866   0.502
  564SOL    HW1 4904   0.849   1.957   0.493
  564SOL    HW2 4905   0.709   1.874   0.508
  565SOL     OW 4906   0.197   2.838   1.264
  565SOL    HW1 4907   0.286   2.793   1.250
  565SOL    HW2 4908   0.124   2.773   1.245
  566SOL     OW 4909   1.525   2.861   0.190
  566SOL    HW1 4910   1.462   2.785   0.203
  566SOL    HW2 4911   1.573   2.879   0.276
  567SOL     OW 4912   1.187   3.654   1.616
  567SOL    HW1 4913   1.211   3.714   1.540
  567SOL    HW2 4914   1.194   3.559   1.586
  568SOL     OW 4915   0.317   2.113   1.801
  568SOL    HW1 4916   0.388   2.184   1.807
  568SOL    HW2 4917   0.229   2.152   1.829
  569SOL     OW 4918   1.466   3.279   0.953
  569SOL    HW1 4919   1.407   3.285   1.033
  569SOL    HW2 4920   1.451   3.191   0.907
  570SOL     OW 4921   1.667   3.576   0.572
  570SOL    HW1 4922   1.626   3.553   0.484
  570SOL    HW2 4923   1.649   3.502   0.637
  571SOL     OW 4924   0.598   2.591   0.270
  571SOL    HW1 4925   0.622   2.660   0.202
  571SOL    HW2 4926   0.520   2.624   0.324
  572SOL     OW 4927   1.281   2.207   0.944
  572SOL    HW1 4928   1.195   2.157   0.931
  572SOL    HW2 4929   1.343   2.153   1.000
  573SOL     OW 4930   1.576   3.524   0.307
  573SOL    HW1 4931   1.665   3.570   0.310
  573SOL    HW2 4932   1.555   3.500   0.212
  574SOL     OW 4933   0.807   2.467   1.465
  574SOL    HW1 4934   0.760   2.464   1.554
  574SOL    HW2 4935   0.756   2.412   1.399
  575SOL     OW 4936   0.991   2.272   1.242
  575SOL    HW1 4937   0.914   2.306   1.296
  575SOL    HW2 4938   0.957   2.221   1.163
  576SOL     OW 4939   1.041   2.563   0.429
  576SOL    HW1 4940   1.067   2.559   0.525
  576SOL    HW2 4941   0.956   2.512   0.415
  577SOL     OW 4942   0.076   2.673   0.789
  577SOL    HW1 4943   0.175   2.661   0.798
  577SOL    HW2 4944   0.052   2.768   0.810
  578SOL     OW 4945   0.130   3.683   1.571
  578SOL    HW1 4946   0.120   3.668   1.670
  578SOL    HW2 4947   0.044   3.719   1.535
  579SOL     OW 4948   1.362   3.006   0.545
  579SOL    HW1 4949   1.445   2.977   0.497
  579SOL    HW2 4950   1.313   3.073   0.489
  580SOL     OW 4951   0.550   2.058   0.885
  580SOL    HW1 4952   0.545   2.053   0.985
  580SOL    HW2 4953   0.552   2.154   0.856
  581SOL     OW 4954   1.008   3.318   0.477
  581SOL    HW1 4955   0.962   3.390   0.425
  581SOL    HW2 4956   1.004   3.338   0.575
  582SOL     OW 4957   0.351   3.663   0.853
  582SOL    HW1 4958   0.401   3.577   0.859
  582SOL    HW2 4959   0.416   3.740   0.850
  583SOL     OW 4960   1.795   2.928   0.873
  583SOL    HW1 4961   1.733   2.913   0.797
  583SOL    HW2 4962   1.743   2.939   0.958
  584SOL     OW 4963   1.227   3.412   1.506
  584SOL    HW1 4964   1.233   3.335   1.570
  584SOL    HW2 4965   1.175   3.386   1.426
  585SOL     OW 4966   0.321   2.805   0.242
  585SOL    HW1 4967   0.403   2.844   0.200
  585SOL    HW2 4968   0.294   2.723   0.193
  586SOL     OW 4969   0.461   3.128   1.727
  586SOL    HW1 4970   0.411   3.129   1.641
  586SOL    HW2 4971   0.398   3.110   1.803
  587SOL     OW 4972   1.111   3.638   0.237
  587SOL    HW1 4973   1.051   3.576   0.287
  587SOL    HW2 4974   1.142   3.594   0.152
  588SOL     OW 4975   0.202   2.147   1.498
  588SOL    HW1 4976   0.122   2.207   1.485
  588SOL    HW2 4977   0.192   2.098   1.584
  589SOL     OW 4978   1.632   3.239   0.081
  589SOL    HW1 4979   1.600   3.333   0.071
  589SOL    HW2 4980   1.556   3.176   0.069
  590SOL     OW 4981   0.464   3.605   0.323
  590SOL    HW1 4982   0.497   3.644   0.409
  590SOL    HW2 4983   0.540   3.598   0.258
  591SOL     OW 4984   1.400   1.969   0.426
  591SOL    HW1 4985   1.376   1.932   0.336
  591SOL    HW2 4986   1.499   1.985   0.430
  592SOL     OW 4987   0.249   3.647   1.241
  592SOL    HW1 4988   0.306   3.582   1.291
  592SOL    HW2 4989   0.233   3.614   1.148
  593SOL     OW 4990   0.940   3.560   0.904
  593SOL    HW1 4991   1.020   3.503   0.925
  593SOL    HW2 4992   0.891   3.520   0.827
  594SOL     OW 4993   0.382   2.562   0.480
  594SOL    HW1 4994   0.427   2.472   0.477
  594SOL    HW2 4995   0.288   2.551   0.513
  595SOL     OW 4996   0.614   1.984   0.117
  595SOL    HW1 4997   0.712   1.962   0.124
  595SOL    HW2 4998   0.583   1.967   0.024
  596SOL     OW 4999   0.781   2.126   1.749
  596SOL    HW1 5000   0.848   2.065   1.792
  596SOL    HW2 5001   0.708   2.145   1.814
  597SOL     OW 5002   0.888   3.376   1.195
  597SOL    HW1 5003   0.865   3.351   1.101
  597SOL    HW2 5004   0.949   3.307   1.234
  598SOL     OW 5005   0.803   3.264   0.924
  598SOL    HW1 5006   0.893   3.278   0.882
  598SOL    HW2 5007   0.732   3.266   0.853
  599SOL     OW 5008   0.922   2.365   0.899
  599SOL    HW1 5009   0.897   2.356   0.803
  599SOL    HW2 5010   0.970   2.283   0.930
  600SOL     OW 5011   0.539   1.926   0.512
  600SOL    HW1 5012   0.458   1.927   0.570
  600SOL    HW2 5013   0.542   2.009   0.457
  601SOL     OW 5014   1.434   3.050   0.041
  601SOL    HW1 5015   1.466   2.974   0.098
  601SOL    HW2 5016   1.342   3.077   0.071
  602SOL     OW 5017   0.297   1.897   0.171
  602SOL    HW1 5018   0.346   1.981   0.150
  602SOL    HW2 5019   0.359   1.832   0.216
  603SOL     OW 5020   1.227   3.432   0.793
  603SOL    HW1 5021   1.248   3.506   0.728
  603SOL    HW2 5022   1.295   3.432   0.866
  604SOL     OW 5023   0.459   3.014   0.741
  604SOL    HW1 5024   0.388   2.987   0.806
  604SOL    HW2 5025   0.433   2.986   0.648
  605SOL     OW 5026   1.271   3.659   0.591
  605SOL    HW1 5027   1.315   3.723   0.527
  605SOL    HW2 5028   1.221   3.711   0.661
  606SOL     OW 5029   1.032   2.411   0.016
  606SOL    HW1 5030   0.991   2.493  -0.023
  606SOL    HW2 5031   1.096   2.437   0.089
  607SOL     OW 5032   0.078   2.418   1.386
  607SOL    HW1 5033   0.170   2.417   1.345
  607SOL    HW2 5034   0.072   2.492   1.453
  608SOL     OW 5035   0.561   2.084   1.147
  608SOL    HW1 5036   0.599   2.000   1.184
  608SOL    HW2 5037   0.473   2.103   1.191
  609SOL     OW 5038   0.866   2.316   0.642
  609SOL    HW1 5039   0.834   2.388   0.580
  609SOL    HW2 5040   0.890   2.235   0.589
  610SOL     OW 5041   1.017   1.901   0.753
  610SOL    HW1 5042   0.945   1.906   0.684
  610SOL    HW2 5043   0.993   1.832   0.822
  611SOL     OW 5044   1.429   3.035   0.867
  611SOL    HW1 5045   1.374   2.951   0.860
  611SOL    HW2 5046   1.455   3.064   0.775
  612SOL     OW 5047   1.857   2.695   0.377
  612SOL    HW1 5048   1.899   2.631   0.441
  612SOL    HW2 5049   1.819   2.644   0.299
  613SOL     OW 5050   0.488   3.247   0.174
  613SOL    HW1 5051   0.401   3.232   0.221
  613SOL    HW2 5052   0.471   3.273   0.079
  614SOL     OW 5053   1.664   3.142   0.657
  614SOL    HW1 5054   1.763   3.150   0.671
  614SOL    HW2 5055   1.619   3.226   0.688
  615SOL     OW 5056   1.390   2.437   0.078
  615SOL    HW1 5057   1.336   2.416   0.159
  615SOL    HW2 5058   1.481   2.396   0.087
  616SOL     OW 5059   0.527   2.118   0.328
  616SOL    HW1 5060   0.554   2.059   0.253
  616SOL    HW2 5061   0.527   2.213   0.297
  617SOL     OW 5062   1.064   3.209   1.340
  617SOL    HW1 5063   0.984   3.186   1.395
  617SOL    HW2 5064   1.147   3.183   1.389
  618SOL     OW 5065   1.111   3.057   1.100
  618SOL    HW1 5066   1.071   3.101   1.181
  618SOL    HW2 5067   1.070   3.094   1.017
  619SOL     OW 5068   0.915   1.951   1.402
  619SOL    HW1 5069   0.940   1.931   1.307
  619SOL    HW2 5070   0.987   2.007   1.444
  620SOL     OW 5071   0.980   2.978   1.719
  620SOL    HW1 5072   0.881   2.984   1.729
  620SOL    HW2 5073   1.003   2.898   1.663
  621SOL     OW 5074   0.705   2.912   0.368
  621SOL    HW1 5075   0.691   2.919   0.467
  621SOL    HW2 5076   0.789   2.861   0.350
  622SOL     OW 5077   0.410   2.675   1.251
  622SOL    HW1 5078   0.496   2.687   1.301
  622SOL    HW2 5079   0.368   2.588   1.278
  623SOL     OW 5080   0.064   3.426   1.331
  623SOL    HW1 5081   0.018   3.508   1.297
  623SOL    HW2 5082   0.162   3.445   1.340
  624SOL     OW 5083   0.367   2.962   0.501
  624SOL    HW1 5084   0.360   3.045   0.445
  624SOL    HW2 5085   0.371   2.882   0.441
  625SOL     OW 5086   0.566   2.399   0.865
  625SOL    HW1 5087   0.578   2.465   0.791
  625SOL    HW2 5088   0.612   2.433   0.948
  626SOL     OW 5089   1.252   3.210   0.388
  626SOL    HW1 5090   1.302   3.287   0.428
  626SOL    HW2 5091   1.157   3.212   0.420
  627SOL     OW 5092   1.272   3.307   1.142
  627SOL    HW1 5093   1.319   3.320   1.229
  627SOL    HW2 5094   1.206   3.233   1.151
  628SOL     OW 5095   1.582   2.501   0.472
  628SOL    HW1 5096   1.551   2.562   0.545
  628SOL    HW2 5097   1.632   2.553   0.403
  629SOL     OW 5098   0.354   3.372   1.329
  629SOL    HW1 5099   0.333   3.328   1.242
  629SOL    HW2 5100   0.451   3.398   1.332
  630SOL     OW 5101   0.402   2.613   1.598
  630SOL    HW1 5102   0.470   2.668   1.551
  630SOL    HW2 5103   0.442   2.525   1.625
  631SOL     OW 5104   1.013   1.967   1.770
  631SOL    HW1 5105   1.019   2.052   1.718
  631SOL    HW2 5106   1.045   1.891   1.713
  632SOL     OW 5107   0.504   1.912   1.740
  632SOL    HW1 5108   0.462   1.855   1.670
  632SOL    HW2 5109   0.438   1.981   1.772
  633SOL     OW 5110   0.573   2.732   1.029
  633SOL    HW1 5111   0.617   2.821   1.020
  633SOL    HW2 5112   0.510   2.732   1.106
  634SOL     OW 5113   1.209   2.387   0.275
  634SOL    HW1 5114   1.222   2.303   0.329
  634SOL    HW2 5115   1.180   2.461   0.335
  635SOL     OW 5116   0.307   2.075   1.231
  635SOL    HW1 5117   0.284   2.112   1.321
  635SOL    HW2 5118   0.277   1.980   1.225
  636SOL     OW 5119   0.037   3.172   1.282
  636SOL    HW1 5120   0.090   3.123   1.350
  636SOL    HW2 5121   0.059   3.270   1.287
  637SOL     OW 5122   0.732   2.496   1.064
  637SOL    HW1 5123   0.791   2.470   0.988
  637SOL    HW2 5124   0.704   2.592   1.053
  638SOL     OW 5125   0.307   1.925   0.618
  638SOL    HW1 5126   0.296   2.019   0.651
  638SOL    HW2 5127   0.302   1.862   0.695
  639SOL     OW 5128   1.622   2.229   0.374
  639SOL    HW1 5129   1.624   2.153   0.438
  639SOL    HW2 5130   1.574   2.306   0.414
  640SOL     OW 5131   1.023   2.628   0.966
  640SOL    HW1 5132   1.038   2.649   1.062
  640SOL    HW2 5133   0.993   2.533   0.957
  641SOL     OW 5134   0.980   3.435   1.700
  641SOL    HW1 5135   0.960   3.479   1.612
  641SOL    HW2 5136   1.019   3.344   1.684
  642SOL     OW 5137   0.350   2.760   1.804
  642SOL    HW1 5138   0.426   2.804   1.852
  642SOL    HW2 5139   0.385   2.713   1.722
  643SOL     OW 5140   1.540   2.136   0.125
  643SOL    HW1 5141   1.479   2.061   0.148
  643SOL    HW2 5142   1.562   2.188   0.208
  644SOL     OW 5143   1.303   2.700   0.042
  644SOL    HW1 5144   1.337   2.607   0.057
  644SOL    HW2 5145   1.321   2.727  -0.053
  645SOL     OW 5146   1.068   3.195   0.849
  645SOL    HW1 5147   1.075   3.111   0.794
  645SOL    HW2 5148   1.130   3.264   0.813
  646SOL     OW 5149   0.319   2.672   0.949
  646SOL    HW1 5150   0.412   2.708   0.954
  646SOL    HW2 5151   0.313   2.587   1.001
  647SOL     OW 5152   0.339   2.371   1.006
  647SOL    HW1 5153   0.287   2.288   0.989
  647SOL    HW2 5154   0.416   2.376   0.942
  648SOL     OW 5155   1.160   2.069   1.477
  648SOL    HW1 5156   1.160   2.133   1.554
  648SOL    HW2 5157   1.188   2.117   1.394
  649SOL     OW 5158   0.008   3.188   0.200
  649SOL    HW1 5159  -0.085   3.209   0.169
  649SOL    HW2 5160   0.018   3.089   0.213
  650SOL     OW 5161   0.088   3.663   0.927
  650SOL    HW1 5162   0.046   3.577   0.900
  650SOL    HW2 5163   0.182   3.666   0.893
  651SOL     OW 5164   0.504   3.430   0.910
  651SOL    HW1 5165   0.570   3.504   0.919
  651SOL    HW2 5166   0.548   3.351   0.868
  652SOL     OW 5167   1.002   2.658   1.238
  652SOL    HW1 5168   1.043   2.626   1.324
  652SOL    HW2 5169   0.906   2.631   1.235
  653SOL     OW 5170   0.040   2.406   1.114
  653SOL    HW1 5171   0.125   2.373   1.073
  653SOL    HW2 5172   0.053   2.421   1.212
  654SOL     OW 5173   0.189   2.382   1.722
  654SOL    HW1 5174   0.248   2.342   1.652
  654SOL    HW2 5175   0.131   2.453   1.681
  655SOL     OW 5176   0.252   3.426   1.744
  655SOL    HW1 5177   0.222   3.483   1.820
  655SOL    HW2 5178   0.245   3.329   1.770
  656SOL     OW 5179   0.671   2.326   1.269
  656SOL    HW1 5180   0.637   2.237   1.239
  656SOL    HW2 5181   0.697   2.380   1.189
  657SOL     OW 5182   0.930   3.540   1.465
  657SOL    HW1 5183   0.906   3.522   1.370
  657SOL    HW2 5184   0.960   3.634   1.475
  658SOL     OW 5185   0.473   2.362   0.191
  658SOL    HW1 5186   0.534   2.442   0.195
  658SOL    HW2 5187   0.378   2.393   0.198
  659SOL     OW 5188   0.159   2.999   1.466
  659SOL    HW1 5189   0.181   2.938   1.542
  659SOL    HW2 5190   0.169   2.950   1.380
  660SOL     OW 5191   1.302   2.717   0.309
  660SOL    HW1 5192   1.216   2.686   0.351
  660SOL    HW2 5193   1.298   2.703   0.210
  661SOL     OW 5194   1.759   3.609   1.154
  661SOL    HW1 5195   1.820   3.639   1.081
  661SOL    HW2 5196   1.721   3.520   1.132
  662SOL     OW 5197   1.252   3.593   1.128
  662SOL    HW1 5198   1.336   3.598   1.074
  662SOL    HW2 5199   1.229   3.497   1.146
  663SOL     OW 5200   0.083   3.120   1.022
  663SOL    HW1 5201   0.078   3.119   1.122
  663SOL    HW2 5202   0.000   3.079   0.984
  664SOL     OW 5203   0.688   3.524   1.716
  664SOL    HW1 5204   0.632   3.605   1.725
  664SOL    HW2 5205   0.740   3.528   1.630
  665SOL     OW 5206   1.726   1.997   0.523
  665SOL    HW1 5207   1.799   1.980   0.456
  665SOL    HW2 5208   1.695   1.910   0.561
  666SOL     OW 5209   1.388   3.435   0.477
  666SOL    HW1 5210   1.455   3.447   0.403
  666SOL    HW2 5211   1.348   3.524   0.500
  667SOL     OW 5212   0.130   3.656   1.851
  667SOL    HW1 5213   0.089   3.582   1.904
  667SOL    HW2 5214   0.194   3.707   1.909
  668SOL     OW 5215   1.280   2.789   0.672
  668SOL    HW1 5216   1.340   2.708   0.674
  668SOL    HW2 5217   1.320   2.858   0.612
  669SOL     OW 5218   0.830   3.135   1.422
  669SOL    HW1 5219   0.825   3.168   1.517
  669SOL    HW2 5220   0.744   3.154   1.376
  670SOL     OW 5221   0.672   3.478   0.154
  670SOL    HW1 5222   0.681   3.488   0.055
  670SOL    HW2 5223   0.632   3.389   0.175
  671SOL     OW 5224   1.650   3.582   1.394
  671SOL    HW1 5225   1.703   3.592   1.310
  671SOL    HW2 5226   1.623   3.672   1.428
  672SOL     OW 5227   0.263   2.188   0.720
  672SOL    HW1 5228   0.184   2.239   0.686
  672SOL    HW2 5229   0.254   2.173   0.818
  673SOL     OW 5230   1.194   3.474   0.031
  673SOL    HW1 5231   1.200   3.381   0.068
  673SOL    HW2 5232   1.135   3.474  -0.049
  674SOL     OW 5233   0.822   2.864   1.372
  674SOL    HW1 5234   0.862   2.863   1.280
  674SOL    HW2 5235   0.832   2.956   1.412
  675SOL     OW 5236   0.916   2.772   0.291
  675SOL    HW1 5237   0.979   2.810   0.223
  675SOL    HW2 5238   0.956   2.689   0.330
  676SOL     OW 5239   1.504   3.469   0.044
  676SOL    HW1 5240   1.412   3.506   0.051
  676SOL    HW2 5241   1.542   3.489  -0.046
  677SOL     OW 5242   0.372   3.150   1.490
  677SOL    HW1 5243   0.359   3.243   1.456
  677SOL    HW2 5244   0.288   3.098   1.477
  678SOL     OW 5245   1.039   2.960   0.696
  678SOL    HW1 5246   0.969   2.913   0.750
  678SOL    HW2 5247   1.098   2.892   0.653
  679SOL     OW 5248   1.014   2.098   0.971
  679SOL    HW1 5249   1.006   2.062   0.878
  679SOL    HW2 5250   1.012   2.022   1.036
  680SOL     OW 5251   0.590   3.349   0.491
  680SOL    HW1 5252   0.632   3.291   0.421
  680SOL    HW2 5253   0.546   3.428   0.447
  681SOL     OW 5254   0.255   3.210   0.290
  681SOL    HW1 5255   0.159   3.211   0.263
  681SOL    HW2 5256   0.267   3.263   0.374
  682SOL     OW 5257   0.105   2.875   1.726
  682SOL    HW1 5258   0.028   2.842   1.780
  682SOL    HW2 5259   0.190   2.845   1.768
  683SOL     OW 5260   0.672   2.065   1.489
  683SOL    HW1 5261   0.762   2.049   1.449
  683SOL    HW2 5262   0.680   2.070   1.588
  684SOL     OW 5263   0.075   2.207   0.033
  684SOL    HW1 5264  -0.017   2.179   0.004
  684SOL    HW2 5265   0.106   2.284  -0.023
  685SOL     OW 5266   0.072   2.028   0.318
  685SOL    HW1 5267   0.055   2.111   0.264
  685SOL    HW2 5268   0.162   1.991   0.296
  686SOL     OW 5269   1.183   3.197   0.119
  686SOL    HW1 5270   1.084   3.186   0.121
  686SOL    HW2 5271   1.217   3.212   0.212
  687SOL     OW 5272   0.613   2.704   1.431
  687SOL    HW1 5273   0.669   2.785   1.414
  687SOL    HW2 5274   0.672   2.624   1.434
  688SOL     OW 5275   1.493   3.629   0.959
  688SOL    HW1 5276   1.526   3.693   0.890
  688SOL    HW2 5277   1.559   3.623   1.034
  689SOL     OW 5278   0.716   2.427   1.708
  689SOL    HW1 5279   0.735   2.492   1.782
  689SOL    HW2 5280   0.776   2.347   1.717
  690SOL     OW 5281   0.390   3.603   1.560
  690SOL    HW1 5282   0.299   3.644   1.558
  690SOL    HW2 5283   0.383   3.509   1.592
  691SOL     OW 5284   1.225   2.187   0.449
  691SOL    HW1 5285   1.290   2.113   0.438
  691SOL    HW2 5286   1.245   2.237   0.533
  692SOL     OW 5287   0.594   2.607   0.652
  692SOL    HW1 5288   0.644   2.692   0.633
  692SOL    HW2 5289   0.506   2.609   0.604
  693SOL     OW 5290   0.859   3.236   0.016
  693SOL    HW1 5291   0.813   3.251   0.104
  693SOL    HW2 5292   0.903   3.321  -0.014
  694SOL     OW 5293   0.661   3.652   0.953
  694SOL    HW1 5294   0.615   3.740   0.940
  694SOL    HW2 5295   0.760   3.664   0.946
  695SOL     OW 5296   0.859   2.818   0.861
  695SOL    HW1 5297   0.913   2.749   0.909
  695SOL    HW2 5298   0.827   2.887   0.927
  696SOL     OW 5299   1.083   2.846   0.087
  696SOL    HW1 5300   1.060   2.899   0.005
  696SOL    HW2 5301   1.164   2.790   0.068
  697SOL     OW 5302   1.861   3.431   0.851
  697SOL    HW1 5303   1.790   3.419   0.781
  697SOL    HW2 5304   1.862   3.352   0.911
  698SOL     OW 5305   0.221   3.176   1.844
  698SOL    HW1 5306   0.156   3.103   1.823
  698SOL    HW2 5307   0.225   3.190   1.942
  699SOL     OW 5308   0.079   3.102   0.653
  699SOL    HW1 5309   0.078   3.055   0.741
  699SOL    HW2 5310   0.161   3.074   0.602
  700SOL     OW 5311   0.672   3.253   1.624
  700SOL    HW1 5312   0.594   3.203   1.662
  700SOL    HW2 5313   0.669   3.348   1.655
  701SOL     OW 5314   0.428   2.286   0.520
  701SOL    HW1 5315   0.458   2.214   0.458
  701SOL    HW2 5316   0.389   2.246   0.603
  702SOL     OW 5317   0.317   2.409   1.280
  702SOL    HW1 5318   0.355   2.350   1.352
  702SOL    HW2 5319   0.357   2.383   1.192
  703SOL     OW 5320   0.812   3.448   0.687
  703SOL    HW1 5321   0.844   3.458   0.593
  703SOL    HW2 5322   0.733   3.386   0.689
  704SOL     OW 5323   1.424   2.076   1.112
  704SOL    HW1 5324   1.476   2.011   1.167
  704SOL    HW2 5325   1.375   2.139   1.173
  705SOL     OW 5326   1.001   1.896   1.154
  705SOL    HW1 5327   0.938   1.824   1.123
  705SOL    HW2 5328   1.094   1.860   1.154
  706SOL     OW 5329   0.770   3.192   0.301
  706SOL    HW1 5330   0.724   3.105   0.318
  706SOL    HW2 5331   0.861   3.189   0.342
  707SOL     OW 5332   0.618   3.429   1.284
  707SOL    HW1 5333   0.613   3.511   1.341
  707SOL    HW2 5334   0.707   3.426   1.239
  708SOL     OW 5335   1.352   1.914   0.168
  708SOL    HW1 5336   1.387   1.873   0.084
  708SOL    HW2 5337   1.262   1.876   0.188
  709SOL     OW 5338   1.300   2.315   0.691
  709SOL    HW1 5339   1.241   2.395   0.695
  709SOL    HW2 5340   1.315   2.280   0.784
  710SOL     OW 5341   1.593   2.083   0.882
  710SOL    HW1 5342   1.509   2.082   0.936
  710SOL    HW2 5343   1.595   2.166   0.826
  711SOL     OW 5344   0.039   2.939   0.300
  711SOL    HW1 5345   0.138   2.928   0.291
  711SOL    HW2 5346  -0.001   2.853   0.332
  712SOL     OW 5347   0.875   3.508   0.337
  712SOL    HW1 5348   0.798   3.473   0.283
  712SOL    HW2 5349   0.843   3.579   0.399
  713SOL     OW 5350   0.230   2.490   1.975
  713SOL    HW1 5351   0.137   2.488   2.012
  713SOL    HW2 5352   0.231   2.451   1.883
  714SOL     OW 5353   0.225   2.137   2.858
  714SOL    HW1 5354   0.260   2.120   2.950
  714SOL    HW2 5355   0.137   2.092   2.846
  715SOL     OW 5356   0.019   2.230   2.509
  715SOL    HW1 5357  -0.063   2.273   2.548
  715SOL    HW2 5358  -0.009   2.157   2.446
  716SOL     OW 5359   0.569   3.137   3.027
  716SOL    HW1 5360   0.476   3.130   2.990
  716SOL    HW2 5361   0.580   3.226   3.071
  717SOL     OW 5362   0.850   2.660   3.685
  717SOL    HW1 5363   0.846   2.736   3.750
  717SOL    HW2 5364   0.872   2.696   3.594
  718SOL     OW 5365   0.685   2.874   2.527
  718SOL    HW1 5366   0.754   2.858   2.597
  718SOL    HW2 5367   0.612   2.931   2.565
  719SOL     OW 5368   0.686   3.023   3.665
  719SOL    HW1 5369   0.746   3.102   3.679
  719SOL    HW2 5370   0.600   3.054   3.624
  720SOL     OW 5371   0.335   3.297   2.923
  720SOL    HW1 5372   0.257   3.266   2.870
  720SOL    HW2 5373   0.393   3.355   2.866
  721SOL     OW 5374   0.438   2.254   3.361
  721SOL    HW1 5375   0.520   2.198   3.370
  721SOL    HW2 5376   0.357   2.196   3.365
  722SOL     OW 5377   0.231   3.575   2.345
  722SOL    HW1 5378   0.265   3.652   2.399
  722SOL    HW2 5379   0.275   3.575   2.255
  723SOL     OW 5380   1.127   3.203   3.552
  723SOL    HW1 5381   1.174   3.203   3.640
  723SOL    HW2 5382   1.079   3.116   3.541
  724SOL     OW 5383   0.230   3.296   2.400
  724SOL    HW1 5384   0.204   3.392   2.400
  724SOL    HW2 5385   0.159   3.242   2.445
  725SOL     OW 5386   0.240   2.953   2.748
  725SOL    HW1 5387   0.254   2.869   2.800
  725SOL    HW2 5388   0.185   3.017   2.803
  726SOL     OW 5389   0.620   3.648   3.301
  726SOL    HW1 5390   0.528   3.631   3.336
  726SOL    HW2 5391   0.648   3.740   3.327
  727SOL     OW 5392   0.606   2.826   1.985
  727SOL    HW1 5393   0.613   2.910   1.931
  727SOL    HW2 5394   0.652   2.839   2.073
  728SOL     OW 5395   0.027   3.458   1.979
  728SOL    HW1 5396   0.008   3.362   2.000
  728SOL    HW2 5397  -0.006   3.516   2.054
  729SOL     OW 5398   0.113   2.599   3.459
  729SOL    HW1 5399   0.201   2.586   3.504
  729SOL    HW2 5400   0.100   2.696   3.437
  730SOL     OW 5401   0.613   3.227   2.588
  730SOL    HW1 5402   0.564   3.140   2.597
  730SOL    HW2 5403   0.590   3.270   2.501
  731SOL     OW 5404   0.809   1.866   2.364
  731SOL    HW1 5405   0.849   1.957   2.355
  731SOL    HW2 5406   0.709   1.874   2.370
  732SOL     OW 5407   0.197   2.838   3.126
  732SOL    HW1 5408   0.286   2.793   3.112
  732SOL    HW2 5409   0.124   2.773   3.107
  733SOL     OW 5410   1.187   3.654   3.478
  733SOL    HW1 5411   1.211   3.714   3.402
  733SOL    HW2 5412   1.194   3.559   3.448
  734SOL     OW 5413   0.317   2.113   3.663
  734SOL    HW1 5414   0.388   2.184   3.669
  734SOL    HW2 5415   0.229   2.152   3.691
  735SOL     OW 5416   0.598   2.591   2.132
  735SOL    HW1 5417   0.622   2.660   2.064
  735SOL    HW2 5418   0.520   2.624   2.186
  736SOL     OW 5419   0.807   2.467   3.327
  736SOL    HW1 5420   0.760   2.464   3.416
  736SOL    HW2 5421   0.756   2.412   3.261
  737SOL     OW 5422   0.973   2.752   3.434
  737SOL    HW1 5423   1.019   2.668   3.405
  737SOL    HW2 5424   0.917   2.786   3.359
  738SOL     OW 5425   0.076   2.673   2.651
  738SOL    HW1 5426   0.175   2.661   2.660
  738SOL    HW2 5427   0.052   2.768   2.672
  739SOL     OW 5428   0.130   3.683   3.433
  739SOL    HW1 5429   0.120   3.668   3.532
  739SOL    HW2 5430   0.044   3.719   3.397
  740SOL     OW 5431   0.865   2.210   2.057
  740SOL    HW1 5432   0.924   2.273   2.008
  740SOL    HW2 5433   0.884   2.116   2.028
  741SOL     OW 5434   0.550   2.058   2.747
  741SOL    HW1 5435   0.545   2.053   2.847
  741SOL    HW2 5436   0.552   2.154   2.718
  742SOL     OW 5437   0.351   3.663   2.715
  742SOL    HW1 5438   0.401   3.577   2.721
  742SOL    HW2 5439   0.416   3.740   2.712
  743SOL     OW 5440   1.227   3.412   3.368
  743SOL    HW1 5441   1.233   3.335   3.432
  743SOL    HW2 5442   1.175   3.386   3.288
  744SOL     OW 5443   0.321   2.805   2.104
  744SOL    HW1 5444   0.403   2.844   2.062
  744SOL    HW2 5445   0.294   2.723   2.055
  745SOL     OW 5446   0.461   3.128   3.589
  745SOL    HW1 5447   0.411   3.129   3.503
  745SOL    HW2 5448   0.398   3.110   3.665
  746SOL     OW 5449   0.202   2.147   3.360
  746SOL    HW1 5450   0.122   2.207   3.347
  746SOL    HW2 5451   0.192   2.098   3.446
  747SOL     OW 5452   0.464   3.605   2.185
  747SOL    HW1 5453   0.497   3.644   2.271
  747SOL    HW2 5454   0.540   3.598   2.120
  748SOL     OW 5455   0.249   3.647   3.103
  748SOL    HW1 5456   0.306   3.582   3.153
  748SOL    HW2 5457   0.233   3.614   3.010
  749SOL     OW 5458   0.382   2.562   2.342
  749SOL    HW1 5459   0.427   2.472   2.339
  749SOL    HW2 5460   0.288   2.551   2.375
  750SOL     OW 5461   0.614   1.984   1.979
  750SOL    HW1 5462   0.712   1.962   1.986
  750SOL    HW2 5463   0.583   1.967   1.886
  751SOL     OW 5464   0.781   2.126   3.611
  751SOL    HW1 5465   0.848   2.065   3.654
  751SOL    HW2 5466   0.708   2.145   3.676
  752SOL     OW 5467   0.888   3.376   3.057
  752SOL    HW1 5468   0.865   3.351   2.963
  752SOL    HW2 5469   0.949   3.307   3.096
  753SOL     OW 5470   0.539   1.926   2.374
  753SOL    HW1 5471   0.458   1.927   2.432
  753SOL    HW2 5472   0.542   2.009   2.319
  754SOL     OW 5473   0.297   1.897   2.033
  754SOL    HW1 5474   0.346   1.981   2.012
  754SOL    HW2 5475   0.359   1.832   2.078
  755SOL     OW 5476   0.459   3.014   2.603
  755SOL    HW1 5477   0.388   2.987   2.668
  755SOL    HW2 5478   0.433   2.986   2.510
  756SOL     OW 5479   0.078   2.418   3.248
  756SOL    HW1 5480   0.170   2.417   3.207
  756SOL    HW2 5481   0.072   2.492   3.315
  757SOL     OW 5482   0.561   2.084   3.009
  757SOL    HW1 5483   0.599   2.000   3.046
  757SOL    HW2 5484   0.473   2.103   3.053
  758SOL     OW 5485   0.488   3.247   2.036
  758SOL    HW1 5486   0.401   3.232   2.083
  758SOL    HW2 5487   0.471   3.273   1.941
  759SOL     OW 5488   0.527   2.118   2.190
  759SOL    HW1 5489   0.554   2.059   2.115
  759SOL    HW2 5490   0.527   2.213   2.159
  760SOL     OW 5491   1.064   3.209   3.202
  760SOL    HW1 5492   0.984   3.186   3.257
  760SOL    HW2 5493   1.147   3.183   3.251
  761SOL     OW 5494   0.980   2.978   3.581
  761SOL    HW1 5495   0.881   2.984   3.591
  761SOL    HW2 5496   1.003   2.898   3.525
  762SOL     OW 5497   0.705   2.912   2.230
  762SOL    HW1 5498   0.691   2.919   2.329
  762SOL    HW2 5499   0.789   2.861   2.212
  763SOL     OW 5500   0.410   2.675   3.113
  763SOL    HW1 5501   0.496   2.687   3.163
  763SOL    HW2 5502   0.368   2.588   3.140
  764SOL     OW 5503   0.064   3.426   3.193
  764SOL    HW1 5504   0.018   3.508   3.159
  764SOL    HW2 5505   0.162   3.445   3.202
  765SOL     OW 5506   0.367   2.962   2.363
  765SOL    HW1 5507   0.360   3.045   2.307
  765SOL    HW2 5508   0.371   2.882   2.303
  766SOL     OW 5509   0.566   2.399   2.727
  766SOL    HW1 5510   0.578   2.465   2.653
  766SOL    HW2 5511   0.612   2.433   2.810
  767SOL     OW 5512   0.354   3.372   3.191
  767SOL    HW1 5513   0.333   3.328   3.104
  767SOL    HW2 5514   0.451   3.398   3.194
  768SOL     OW 5515   0.402   2.613   3.460
  768SOL    HW1 5516   0.470   2.668   3.413
  768SOL    HW2 5517   0.442   2.525   3.487
  769SOL     OW 5518   1.013   1.967   3.632
  769SOL    HW1 5519   1.019   2.052   3.580
  769SOL    HW2 5520   1.045   1.891   3.575
  770SOL     OW 5521   0.504   1.912   3.602
  770SOL    HW1 5522   0.462   1.855   3.532
  770SOL    HW2 5523   0.438   1.981   3.634
  771SOL     OW 5524   0.573   2.732   2.891
  771SOL    HW1 5525   0.617   2.821   2.882
  771SOL    HW2 5526   0.510   2.732   2.968
  772SOL     OW 5527   0.307   2.075   3.093
  772SOL    HW1 5528   0.284   2.112   3.183
  772SOL    HW2 5529   0.277   1.980   3.087
  773SOL     OW 5530   0.037   3.172   3.144
  773SOL    HW1 5531   0.090   3.123   3.212
  773SOL    HW2 5532   0.059   3.270   3.149
  774SOL     OW 5533   0.307   1.925   2.480
  774SOL    HW1 5534   0.296   2.019   2.513
  774SOL    HW2 5535   0.302   1.862   2.557
  775SOL     OW 5536   0.980   3.435   3.562
  775SOL    HW1 5537   0.960   3.479   3.474
  775SOL    HW2 5538   1.019   3.344   3.546
  776SOL     OW 5539   0.350   2.760   3.666
  776SOL    HW1 5540   0.426   2.804   3.714
  776SOL    HW2 5541   0.385   2.713   3.584
  777SOL     OW 5542   0.319   2.672   2.811
  777SOL    HW1 5543   0.412   2.708   2.816
  777SOL    HW2 5544   0.313   2.587   2.863
  778SOL     OW 5545   0.339   2.371   2.868
  778SOL    HW1 5546   0.287   2.288   2.851
  778SOL    HW2 5547   0.416   2.376   2.804
  779SOL     OW 5548   0.008   3.188   2.062
  779SOL    HW1 5549  -0.085   3.209   2.031
  779SOL    HW2 5550   0.018   3.089   2.075
  780SOL     OW 5551   0.088   3.663   2.789
  780SOL    HW1 5552   0.046   3.577   2.762
  780SOL    HW2 5553   0.182   3.666   2.755
  781SOL     OW 5554   0.504   3.430   2.772
  781SOL    HW1 5555   0.570   3.504   2.781
  781SOL    HW2 5556   0.548   3.351   2.730
  782SOL     OW 5557   0.040   2.406   2.976
  782SOL    HW1 5558   0.125   2.373   2.935
  782SOL    HW2 5559   0.053   2.421   3.074
  783SOL     OW 5560   0.189   2.382   3.584
  783SOL    HW1 5561   0.248   2.342   3.514
  783SOL    HW2 5562   0.131   2.453   3.543
  784SOL     OW 5563   0.815   2.434   2.187
  784SOL    HW1 5564   0.822   2.345   2.141
  784SOL    HW2 5565   0.721   2.468   2.179
  785SOL     OW 5566   0.252   3.426   3.606
  785SOL    HW1 5567   0.222   3.483   3.682
  785SOL    HW2 5568   0.245   3.329   3.632
  786SOL     OW 5569   0.930   3.540   3.327
  786SOL    HW1 5570   0.906   3.522   3.232
  786SOL    HW2 5571   0.960   3.634   3.337
  787SOL     OW 5572   0.473   2.362   2.053
  787SOL    HW1 5573   0.534   2.442   2.057
  787SOL    HW2 5574   0.378   2.393   2.060
  788SOL     OW 5575   0.159   2.999   3.328
  788SOL    HW1 5576   0.181   2.938   3.404
  788SOL    HW2 5577   0.169   2.950   3.242
  789SOL     OW 5578   0.083   3.120   2.884
  789SOL    HW1 5579   0.078   3.119   2.984
  789SOL    HW2 5580   0.000   3.079   2.846
  790SOL     OW 5581   0.688   3.524   3.578
  790SOL    HW1 5582   0.632   3.605   3.587
  790SOL    HW2 5583   0.740   3.528   3.492
  791SOL     OW 5584   0.130   3.656   3.713
  791SOL    HW1 5585   0.089   3.582   3.766
  791SOL    HW2 5586   0.194   3.707   3.771
  792SOL     OW 5587   0.830   3.135   3.284
  792SOL    HW1 5588   0.825   3.168   3.379
  792SOL    HW2 5589   0.744   3.154   3.238
  793SOL     OW 5590   0.672   3.478   2.016
  793SOL    HW1 5591   0.681   3.488   1.917
  793SOL    HW2 5592   0.632   3.389   2.037
  794SOL     OW 5593   0.263   2.188   2.582
  794SOL    HW1 5594   0.184   2.239   2.548
  794SOL    HW2 5595   0.254   2.173   2.680
  795SOL     OW 5596   0.822   2.864   3.234
  795SOL    HW1 5597   0.862   2.863   3.142
  795SOL    HW2 5598   0.832   2.956   3.274
  796SOL     OW 5599   0.372   3.150   3.352
  796SOL    HW1 5600   0.359   3.243   3.318
  796SOL    HW2 5601   0.288   3.098   3.339
  797SOL     OW 5602   0.590   3.349   2.353
  797SOL    HW1 5603   0.632   3.291   2.283
  797SOL    HW2 5604   0.546   3.428   2.309
  798SOL     OW 5605   0.255   3.210   2.152
  798SOL    HW1 5606   0.159   3.211   2.125
  798SOL    HW2 5607   0.267   3.263   2.236
  799SOL     OW 5608   0.105   2.875   3.588
  799SOL    HW1 5609   0.028   2.842   3.642
  799SOL    HW2 5610   0.190   2.845   3.630
  800SOL     OW 5611   0.075   2.207   1.895
  800SOL    HW1 5612  -0.017   2.179   1.866
  800SOL    HW2 5613   0.106   2.284   1.839
  801SOL     OW 5614   0.072   2.028   2.180
  801SOL    HW1 5615   0.055   2.111   2.126
  801SOL    HW2 5616   0.162   1.991   2.158
  802SOL     OW 5617   0.613   2.704   3.293
  802SOL    HW1 5618   0.669   2.785   3.276
  802SOL    HW2 5619   0.672   2.624   3.296
  803SOL     OW 5620   0.716   2.427   3.570
  803SOL    HW1 5621   0.735   2.492   3.644
  803SOL    HW2 5622   0.776   2.347   3.579
  804SOL     OW 5623   0.390   3.603   3.422
  804SOL    HW1 5624   0.299   3.644   3.420
  804SOL    HW2 5625   0.383   3.509   3.454
  805SOL     OW 5626   0.859   3.236   1.878
  805SOL    HW1 5627   0.813   3.251   1.966
  805SOL    HW2 5628   0.903   3.321   1.848
  806SOL     OW 5629   0.661   3.652   2.815
  806SOL    HW1 5630   0.615   3.740   2.802
  806SOL    HW2 5631   0.760   3.664   2.808
  807SOL     OW 5632   0.221   3.176   3.706
  807SOL    HW1 5633   0.156   3.103   3.685
  807SOL    HW2 5634   0.225   3.190   3.804
  808SOL     OW 5635   0.079   3.102   2.515
  808SOL    HW1 5636   0.078   3.055   2.603
  808SOL    HW2 5637   0.161   3.074   2.464
  809SOL     OW 5638   0.672   3.253   3.486
  809SOL    HW1 5639   0.594   3.203   3.524
  809SOL    HW2 5640   0.669   3.348   3.517
  810SOL     OW 5641   0.428   2.286   2.382
  810SOL    HW1 5642   0.458   2.214   2.320
  810SOL    HW2 5643   0.389   2.246   2.465
  811SOL     OW 5644   0.317   2.409   3.142
  811SOL    HW1 5645   0.355   2.350   3.214
  811SOL    HW2 5646   0.357   2.383   3.054
  812SOL     OW 5647   0.770   3.192   2.163
  812SOL    HW1 5648   0.724   3.105   2.180
  812SOL    HW2 5649   0.861   3.189   2.204
  813SOL     OW 5650   0.618   3.429   3.146
  813SOL    HW1 5651   0.613   3.511   3.203
  813SOL    HW2 5652   0.707   3.426   3.101
  814SOL     OW 5653   0.039   2.939   2.162
  814SOL    HW1 5654   0.138   2.928   2.153
  814SOL    HW2 5655  -0.001   2.853   2.194
  815SOL     OW 5656   0.875   3.508   2.199
  815SOL    HW1 5657   0.798   3.473   2.145
  815SOL    HW2 5658   0.843   3.579   2.261
  816SOL     OW 5659   0.230   2.490   3.837
  816SOL    HW1 5660   0.137   2.488   3.874
  816SOL    HW2 5661   0.231   2.451   3.745
  817SOL     OW 5662   0.225   2.137   4.720
  817SOL    HW1 5663   0.260   2.120   4.812
  817SOL    HW2 5664   0.137   2.092   4.708
  818SOL     OW 5665   0.019   2.230   4.371
  818SOL    HW1 5666  -0.063   2.273   4.410
  818SOL    HW2 5667  -0.009   2.157   4.308
  819SOL     OW 5668   0.569   3.137   4.889
  819SOL    HW1 5669   0.476   3.130   4.852
  819SOL    HW2 5670   0.580   3.226   4.933
  820SOL     OW 5671   1.555   3.373   4.427
  820SOL    HW1 5672   1.498   3.357   4.508
  820SOL    HW2 5673   1.496   3.383   4.347
  821SOL     OW 5674   1.135   2.565   4.441
  821SOL    HW1 5675   1.192   2.643   4.416
  821SOL    HW2 5676   1.075   2.591   4.517
  822SOL     OW 5677   0.768   3.006   4.747
  822SOL    HW1 5678   0.690   3.023   4.807
  822SOL    HW2 5679   0.802   3.093   4.711
  823SOL     OW 5680   0.685   2.874   4.389
  823SOL    HW1 5681   0.754   2.858   4.459
  823SOL    HW2 5682   0.612   2.931   4.427
  824SOL     OW 5683   0.335   3.297   4.785
  824SOL    HW1 5684   0.257   3.266   4.732
  824SOL    HW2 5685   0.393   3.355   4.728
  825SOL     OW 5686   1.603   2.309   4.461
  825SOL    HW1 5687   1.529   2.355   4.411
  825SOL    HW2 5688   1.654   2.377   4.514
  826SOL     OW 5689   0.231   3.575   4.207
  826SOL    HW1 5690   0.265   3.652   4.261
  826SOL    HW2 5691   0.275   3.575   4.117
  827SOL     OW 5692   0.230   3.296   4.262
  827SOL    HW1 5693   0.204   3.392   4.262
  827SOL    HW2 5694   0.159   3.242   4.307
  828SOL     OW 5695   0.240   2.953   4.610
  828SOL    HW1 5696   0.254   2.869   4.662
  828SOL    HW2 5697   0.185   3.017   4.665
  829SOL     OW 5698   0.606   2.826   3.847
  829SOL    HW1 5699   0.613   2.910   3.793
  829SOL    HW2 5700   0.652   2.839   3.935
  830SOL     OW 5701   0.122   2.505   4.287
  830SOL    HW1 5702   0.077   2.417   4.304
  830SOL    HW2 5703   0.121   2.559   4.371
  831SOL     OW 5704   1.842   3.629   4.083
  831SOL    HW1 5705   1.896   3.600   4.163
  831SOL    HW2 5706   1.872   3.719   4.054
  832SOL     OW 5707   0.027   3.458   3.841
  832SOL    HW1 5708   0.008   3.362   3.862
  832SOL    HW2 5709  -0.006   3.516   3.916
  833SOL     OW 5710   1.689   2.784   4.336
  833SOL    HW1 5711   1.784   2.755   4.344
  833SOL    HW2 5712   1.681   2.849   4.261
  834SOL     OW 5713   1.641   2.970   4.156
  834SOL    HW1 5714   1.727   2.972   4.104
  834SOL    HW2 5715   1.655   3.017   4.244
  835SOL     OW 5716   0.613   3.227   4.450
  835SOL    HW1 5717   0.564   3.140   4.459
  835SOL    HW2 5718   0.590   3.270   4.363
  836SOL     OW 5719   0.809   1.866   4.226
  836SOL    HW1 5720   0.849   1.957   4.217
  836SOL    HW2 5721   0.709   1.874   4.232
  837SOL     OW 5722   0.197   2.838   4.988
  837SOL    HW1 5723   0.286   2.793   4.974
  837SOL    HW2 5724   0.124   2.773   4.969
  838SOL     OW 5725   1.466   3.279   4.677
  838SOL    HW1 5726   1.407   3.285   4.757
  838SOL    HW2 5727   1.451   3.191   4.631
  839SOL     OW 5728   1.667   3.576   4.296
  839SOL    HW1 5729   1.626   3.553   4.208
  839SOL    HW2 5730   1.649   3.502   4.361
  840SOL     OW 5731   0.598   2.591   3.994
  840SOL    HW1 5732   0.622   2.660   3.926
  840SOL    HW2 5733   0.520   2.624   4.048
  841SOL     OW 5734   1.281   2.207   4.668
  841SOL    HW1 5735   1.195   2.157   4.655
  841SOL    HW2 5736   1.343   2.153   4.724
  842SOL     OW 5737   1.576   3.524   4.031
  842SOL    HW1 5738   1.665   3.570   4.034
  842SOL    HW2 5739   1.555   3.500   3.936
  843SOL     OW 5740   1.041   2.563   4.153
  843SOL    HW1 5741   1.067   2.559   4.249
  843SOL    HW2 5742   0.956   2.512   4.139
  844SOL     OW 5743   0.076   2.673   4.513
  844SOL    HW1 5744   0.175   2.661   4.522
  844SOL    HW2 5745   0.052   2.768   4.534
  845SOL     OW 5746   0.130   3.683   5.295
  845SOL    HW1 5747   0.120   3.668   5.394
  845SOL    HW2 5748   0.044   3.719   5.259
  846SOL     OW 5749   0.865   2.210   3.919
  846SOL    HW1 5750   0.924   2.273   3.870
  846SOL    HW2 5751   0.884   2.116   3.890
  847SOL     OW 5752   1.362   3.006   4.269
  847SOL    HW1 5753   1.445   2.977   4.221
  847SOL    HW2 5754   1.313   3.073   4.213
  848SOL     OW 5755   0.550   2.058   4.609
  848SOL    HW1 5756   0.545   2.053   4.709
  848SOL    HW2 5757   0.552   2.154   4.580
  849SOL     OW 5758   1.008   3.318   4.201
  849SOL    HW1 5759   0.962   3.390   4.149
  849SOL    HW2 5760   1.004   3.338   4.299
  850SOL     OW 5761   0.351   3.663   4.577
  850SOL    HW1 5762   0.401   3.577   4.583
  850SOL    HW2 5763   0.416   3.740   4.574
  851SOL     OW 5764   1.795   2.928   4.597
  851SOL    HW1 5765   1.733   2.913   4.521
  851SOL    HW2 5766   1.743   2.939   4.682
  852SOL     OW 5767   0.321   2.805   3.966
  852SOL    HW1 5768   0.403   2.844   3.924
  852SOL    HW2 5769   0.294   2.723   3.917
  853SOL     OW 5770   1.458   2.597   4.452
  853SOL    HW1 5771   1.453   2.532   4.527
  853SOL    HW2 5772   1.538   2.656   4.465
  854SOL     OW 5773   1.111   3.638   3.961
  854SOL    HW1 5774   1.051   3.576   4.011
  854SOL    HW2 5775   1.142   3.594   3.876
  855SOL     OW 5776   0.464   3.605   4.047
  855SOL    HW1 5777   0.497   3.644   4.133
  855SOL    HW2 5778   0.540   3.598   3.982
  856SOL     OW 5779   1.400   1.969   4.150
  856SOL    HW1 5780   1.376   1.932   4.060
  856SOL    HW2 5781   1.499   1.985   4.154
  857SOL     OW 5782   0.249   3.647   4.965
  857SOL    HW1 5783   0.306   3.582   5.015
  857SOL    HW2 5784   0.233   3.614   4.872
  858SOL     OW 5785   0.940   3.560   4.628
  858SOL    HW1 5786   1.020   3.503   4.649
  858SOL    HW2 5787   0.891   3.520   4.551
  859SOL     OW 5788   0.382   2.562   4.204
  859SOL    HW1 5789   0.427   2.472   4.201
  859SOL    HW2 5790   0.288   2.551   4.237
  860SOL     OW 5791   0.614   1.984   3.841
  860SOL    HW1 5792   0.712   1.962   3.848
  860SOL    HW2 5793   0.583   1.967   3.748
  861SOL     OW 5794   0.803   3.264   4.648
  861SOL    HW1 5795   0.893   3.278   4.606
  861SOL    HW2 5796   0.732   3.266   4.577
  862SOL     OW 5797   0.922   2.365   4.623
  862SOL    HW1 5798   0.897   2.356   4.527
  862SOL    HW2 5799   0.970   2.283   4.654
  863SOL     OW 5800   0.539   1.926   4.236
  863SOL    HW1 5801   0.458   1.927   4.294
  863SOL    HW2 5802   0.542   2.009   4.181
  864SOL     OW 5803   0.297   1.897   3.895
  864SOL    HW1 5804   0.346   1.981   3.874
  864SOL    HW2 5805   0.359   1.832   3.940
  865SOL     OW 5806   0.935   2.098   4.204
  865SOL    HW1 5807   0.887   2.139   4.126
  865SOL    HW2 5808   1.034   2.096   4.185
  866SOL     OW 5809   1.227   3.432   4.517
  866SOL    HW1 5810   1.248   3.506   4.452
  866SOL    HW2 5811   1.295   3.432   4.590
  867SOL     OW 5812   0.459   3.014   4.465
  867SOL    HW1 5813   0.388   2.987   4.530
  867SOL    HW2 5814   0.433   2.986   4.372
  868SOL     OW 5815   1.271   3.659   4.315
  868SOL    HW1 5816   1.315   3.723   4.251
  868SOL    HW2 5817   1.221   3.711   4.385
  869SOL     OW 5818   1.032   2.411   3.740
  869SOL    HW1 5819   0.991   2.493   3.701
  869SOL    HW2 5820   1.096   2.437   3.813
  870SOL     OW 5821   0.866   2.316   4.366
  870SOL    HW1 5822   0.834   2.388   4.304
  870SOL    HW2 5823   0.890   2.235   4.313
  871SOL     OW 5824   1.017   1.901   4.477
  871SOL    HW1 5825   0.945   1.906   4.408
  871SOL    HW2 5826   0.993   1.832   4.546
  872SOL     OW 5827   1.429   3.035   4.591
  872SOL    HW1 5828   1.374   2.951   4.584
  872SOL    HW2 5829   1.455   3.064   4.499
  873SOL     OW 5830   1.466   2.452   4.716
  873SOL    HW1 5831   1.436   2.357   4.723
  873SOL    HW2 5832   1.539   2.468   4.782
  874SOL     OW 5833   0.488   3.247   3.898
  874SOL    HW1 5834   0.401   3.232   3.945
  874SOL    HW2 5835   0.471   3.273   3.803
  875SOL     OW 5836   1.664   3.142   4.381
  875SOL    HW1 5837   1.763   3.150   4.395
  875SOL    HW2 5838   1.619   3.226   4.412
  876SOL     OW 5839   0.527   2.118   4.052
  876SOL    HW1 5840   0.554   2.059   3.977
  876SOL    HW2 5841   0.527   2.213   4.021
  877SOL     OW 5842   1.111   3.057   4.824
  877SOL    HW1 5843   1.071   3.101   4.905
  877SOL    HW2 5844   1.070   3.094   4.741
  878SOL     OW 5845   1.638   2.961   4.803
  878SOL    HW1 5846   1.643   3.042   4.862
  878SOL    HW2 5847   1.552   2.963   4.752
  879SOL     OW 5848   0.705   2.912   4.092
  879SOL    HW1 5849   0.691   2.919   4.191
  879SOL    HW2 5850   0.789   2.861   4.074
  880SOL     OW 5851   0.410   2.675   4.975
  880SOL    HW1 5852   0.496   2.687   5.025
  880SOL    HW2 5853   0.368   2.588   5.002
  881SOL     OW 5854   0.367   2.962   4.225
  881SOL    HW1 5855   0.360   3.045   4.169
  881SOL    HW2 5856   0.371   2.882   4.165
  882SOL     OW 5857   0.566   2.399   4.589
  882SOL    HW1 5858   0.578   2.465   4.515
  882SOL    HW2 5859   0.612   2.433   4.672
  883SOL     OW 5860   1.252   3.210   4.112
  883SOL    HW1 5861   1.302   3.287   4.152
  883SOL    HW2 5862   1.157   3.212   4.144
  884SOL     OW 5863   1.272   3.307   4.866
  884SOL    HW1 5864   1.319   3.320   4.953
  884SOL    HW2 5865   1.206   3.233   4.875
  885SOL     OW 5866   0.573   2.732   4.753
  885SOL    HW1 5867   0.617   2.821   4.744
  885SOL    HW2 5868   0.510   2.732   4.830
  886SOL     OW 5869   1.360   2.724   4.769
  886SOL    HW1 5870   1.285   2.724   4.703
  886SOL    HW2 5871   1.397   2.632   4.778
  887SOL     OW 5872   0.307   2.075   4.955
  887SOL    HW1 5873   0.284   2.112   5.045
  887SOL    HW2 5874   0.277   1.980   4.949
  888SOL     OW 5875   0.037   3.172   5.006
  888SOL    HW1 5876   0.090   3.123   5.074
  888SOL    HW2 5877   0.059   3.270   5.011
  889SOL     OW 5878   0.732   2.496   4.788
  889SOL    HW1 5879   0.791   2.470   4.712
  889SOL    HW2 5880   0.704   2.592   4.777
  890SOL     OW 5881   0.307   1.925   4.342
  890SOL    HW1 5882   0.296   2.019   4.375
  890SOL    HW2 5883   0.302   1.862   4.419
  891SOL     OW 5884   1.023   2.628   4.690
  891SOL    HW1 5885   1.038   2.649   4.786
  891SOL    HW2 5886   0.993   2.533   4.681
  892SOL     OW 5887   1.068   3.195   4.573
  892SOL    HW1 5888   1.075   3.111   4.518
  892SOL    HW2 5889   1.130   3.264   4.537
  893SOL     OW 5890   0.319   2.672   4.673
  893SOL    HW1 5891   0.412   2.708   4.678
  893SOL    HW2 5892   0.313   2.587   4.725
  894SOL     OW 5893   0.339   2.371   4.730
  894SOL    HW1 5894   0.287   2.288   4.713
  894SOL    HW2 5895   0.416   2.376   4.666
  895SOL     OW 5896   0.008   3.188   3.924
  895SOL    HW1 5897  -0.085   3.209   3.893
  895SOL    HW2 5898   0.018   3.089   3.937
  896SOL     OW 5899   0.088   3.663   4.651
  896SOL    HW1 5900   0.046   3.577   4.624
  896SOL    HW2 5901   0.182   3.666   4.617
  897SOL     OW 5902   0.504   3.430   4.634
  897SOL    HW1 5903   0.570   3.504   4.643
  897SOL    HW2 5904   0.548   3.351   4.592
  898SOL     OW 5905   1.002   2.658   4.962
  898SOL    HW1 5906   1.043   2.626   5.048
  898SOL    HW2 5907   0.906   2.631   4.959
  899SOL     OW 5908   0.040   2.406   4.838
  899SOL    HW1 5909   0.125   2.373   4.797
  899SOL    HW2 5910   0.053   2.421   4.936
  900SOL     OW 5911   0.815   2.434   4.049
  900SOL    HW1 5912   0.822   2.345   4.003
  900SOL    HW2 5913   0.721   2.468   4.041
  901SOL     OW 5914   1.657   2.466   4.930
  901SOL    HW1 5915   1.619   2.397   4.992
  901SOL    HW2 5916   1.739   2.430   4.886
  902SOL     OW 5917   0.671   2.326   4.993
  902SOL    HW1 5918   0.637   2.237   4.963
  902SOL    HW2 5919   0.697   2.380   4.913
  903SOL     OW 5920   0.473   2.362   3.915
  903SOL    HW1 5921   0.534   2.442   3.919
  903SOL    HW2 5922   0.378   2.393   3.922
  904SOL     OW 5923   1.347   2.921   4.958
  904SOL    HW1 5924   1.371   2.858   4.884
  904SOL    HW2 5925   1.257   2.961   4.940
  905SOL     OW 5926   1.302   2.717   4.033
  905SOL    HW1 5927   1.216   2.686   4.075
  905SOL    HW2 5928   1.298   2.703   3.934
  906SOL     OW 5929   1.759   3.609   4.878
  906SOL    HW1 5930   1.820   3.639   4.805
  906SOL    HW2 5931   1.721   3.520   4.856
  907SOL     OW 5932   0.083   3.120   4.746
  907SOL    HW1 5933   0.078   3.119   4.846
  907SOL    HW2 5934   0.000   3.079   4.708
  908SOL     OW 5935   1.726   1.997   4.247
  908SOL    HW1 5936   1.799   1.980   4.180
  908SOL    HW2 5937   1.695   1.910   4.285
  909SOL     OW 5938   1.388   3.435   4.201
  909SOL    HW1 5939   1.455   3.447   4.127
  909SOL    HW2 5940   1.348   3.524   4.224
  910SOL     OW 5941   1.280   2.789   4.396
  910SOL    HW1 5942   1.340   2.708   4.398
  910SOL    HW2 5943   1.320   2.858   4.336
  911SOL     OW 5944   0.672   3.478   3.878
  911SOL    HW1 5945   0.681   3.488   3.779
  911SOL    HW2 5946   0.632   3.389   3.899
  912SOL     OW 5947   1.650   3.582   5.118
  912SOL    HW1 5948   1.703   3.592   5.034
  912SOL    HW2 5949   1.623   3.672   5.152
  913SOL     OW 5950   1.841   2.037   4.687
  913SOL    HW1 5951   1.880   1.952   4.651
  913SOL    HW2 5952   1.743   2.039   4.668
  914SOL     OW 5953   0.263   2.188   4.444
  914SOL    HW1 5954   0.184   2.239   4.410
  914SOL    HW2 5955   0.254   2.173   4.542
  915SOL     OW 5956   1.194   3.474   3.755
  915SOL    HW1 5957   1.200   3.381   3.792
  915SOL    HW2 5958   1.135   3.474   3.675
  916SOL     OW 5959   0.822   2.864   5.096
  916SOL    HW1 5960   0.862   2.863   5.004
  916SOL    HW2 5961   0.832   2.956   5.136
  917SOL     OW 5962   0.916   2.772   4.015
  917SOL    HW1 5963   0.979   2.810   3.947
  917SOL    HW2 5964   0.956   2.689   4.054
  918SOL     OW 5965   1.039   2.960   4.420
  918SOL    HW1 5966   0.969   2.913   4.474
  918SOL    HW2 5967   1.098   2.892   4.377
  919SOL     OW 5968   1.014   2.098   4.695
  919SOL    HW1 5969   1.006   2.062   4.602
  919SOL    HW2 5970   1.012   2.022   4.760
  920SOL     OW 5971   0.590   3.349   4.215
  920SOL    HW1 5972   0.632   3.291   4.145
  920SOL    HW2 5973   0.546   3.428   4.171
  921SOL     OW 5974   1.709   2.247   5.105
  921SOL    HW1 5975   1.782   2.316   5.109
  921SOL    HW2 5976   1.737   2.172   5.046
  922SOL     OW 5977   0.255   3.210   4.014
  922SOL    HW1 5978   0.159   3.211   3.987
  922SOL    HW2 5979   0.267   3.263   4.098
  923SOL     OW 5980   0.075   2.207   3.757
  923SOL    HW1 5981  -0.017   2.179   3.728
  923SOL    HW2 5982   0.106   2.284   3.701
  924SOL     OW 5983   0.072   2.028   4.042
  924SOL    HW1 5984   0.055   2.111   3.988
  924SOL    HW2 5985   0.162   1.991   4.020
  925SOL     OW 5986   1.183   3.197   3.843
  925SOL    HW1 5987   1.084   3.186   3.845
  925SOL    HW2 5988   1.217   3.212   3.936
  926SOL     OW 5989   1.493   3.629   4.683
  926SOL    HW1 5990   1.526   3.693   4.614
  926SOL    HW2 5991   1.559   3.623   4.758
  927SOL     OW 5992   1.674   2.745   4.978
  927SOL    HW1 5993   1.647   2.656   4.941
  927SOL    HW2 5994   1.675   2.813   4.905
  928SOL     OW 5995   1.225   2.187   4.173
  928SOL    HW1 5996   1.290   2.113   4.162
  928SOL    HW2 5997   1.245   2.237   4.257
  929SOL     OW 5998   0.594   2.607   4.376
  929SOL    HW1 5999   0.644   2.692   4.357
  929SOL    HW2 6000   0.506   2.609   4.328
  930SOL     OW 6001   1.730   2.796   5.241
  930SOL    HW1 6002   1.768   2.887   5.256
  930SOL    HW2 6003   1.722   2.779   5.142
  931SOL     OW 6004   0.859   3.236   3.740
  931SOL    HW1 6005   0.813   3.251   3.828
  931SOL    HW2 6006   0.903   3.321   3.710
  932SOL     OW 6007   0.661   3.652   4.677
  932SOL    HW1 6008   0.615   3.740   4.664
  932SOL    HW2 6009   0.760   3.664   4.670
  933SOL     OW 6010   0.859   2.818   4.585
  933SOL    HW1 6011   0.913   2.749   4.633
  933SOL    HW2 6012   0.827   2.887   4.651
  934SOL     OW 6013   1.083   2.846   3.811
  934SOL    HW1 6014   1.060   2.899   3.729
  934SOL    HW2 6015   1.164   2.790   3.792
  935SOL     OW 6016   1.861   3.431   4.575
  935SOL    HW1 6017   1.790   3.419   4.505
  935SOL    HW2 6018   1.862   3.352   4.635
  936SOL     OW 6019   0.079   3.102   4.377
  936SOL    HW1 6020   0.078   3.055   4.465
  936SOL    HW2 6021   0.161   3.074   4.326
  937SOL     OW 6022   1.824   2.054   4.951
  937SOL    HW1 6023   1.820   1.964   4.995
  937SOL    HW2 6024   1.827   2.043   4.852
  938SOL     OW 6025   0.428   2.286   4.244
  938SOL    HW1 6026   0.458   2.214   4.182
  938SOL    HW2 6027   0.389   2.246   4.327
  939SOL     OW 6028   1.705   3.349   4.828
  939SOL    HW1 6029   1.612   3.324   4.801
  939SOL    HW2 6030   1.731   3.299   4.910
  940SOL     OW 6031   0.812   3.448   4.411
  940SOL    HW1 6032   0.844   3.458   4.317
  940SOL    HW2 6033   0.733   3.386   4.413
  941SOL     OW 6034   1.424   2.076   4.836
  941SOL    HW1 6035   1.476   2.011   4.891
  941SOL    HW2 6036   1.375   2.139   4.897
  942SOL     OW 6037   1.001   1.896   4.878
  942SOL    HW1 6038   0.938   1.824   4.847
  942SOL    HW2 6039   1.094   1.860   4.878
  943SOL     OW 6040   0.770   3.192   4.025
  943SOL    HW1 6041   0.724   3.105   4.042
  943SOL    HW2 6042   0.861   3.189   4.066
  944SOL     OW 6043   1.300   2.315   4.415
  944SOL    HW1 6044   1.241   2.395   4.419
  944SOL    HW2 6045   1.315   2.280   4.508
  945SOL     OW 6046   1.593   2.083   4.606
  945SOL    HW1 6047   1.509   2.082   4.660
  945SOL    HW2 6048   1.595   2.166   4.550
  946SOL     OW 6049   0.039   2.939   4.024
  946SOL    HW1 6050   0.138   2.928   4.015
  946SOL    HW2 6051  -0.001   2.853   4.056
  947SOL     OW 6052   0.875   3.508   4.061
  947SOL    HW1 6053   0.798   3.473   4.007
  947SOL    HW2 6054   0.843   3.579   4.123
  948SOL     OW 6055   0.230   4.352   0.113
  948SOL    HW1 6056   0.137   4.350   0.150
  948SOL    HW2 6057   0.231   4.313   0.021
  949SOL     OW 6058   0.225   3.999   0.996
  949SOL    HW1 6059   0.260   3.982   1.088
  949SOL    HW2 6060   0.137   3.954   0.984
  950SOL     OW 6061   0.019   4.092   0.647
  950SOL    HW1 6062  -0.063   4.135   0.686
  950SOL    HW2 6063  -0.009   4.019   0.584
  951SOL     OW 6064   1.135   4.427   0.717
  951SOL    HW1 6065   1.192   4.505   0.692
  951SOL    HW2 6066   1.075   4.453   0.793
  952SOL     OW 6067   1.755   4.331   0.231
  952SOL    HW1 6068   1.743   4.318   0.132
  952SOL    HW2 6069   1.725   4.250   0.280
  953SOL     OW 6070   0.768   4.868   1.023
  953SOL    HW1 6071   0.690   4.885   1.083
  953SOL    HW2 6072   0.802   4.955   0.987
  954SOL     OW 6073   0.850   4.522   1.823
  954SOL    HW1 6074   0.846   4.598   1.888
  954SOL    HW2 6075   0.872   4.558   1.732
  955SOL     OW 6076   0.685   4.736   0.665
  955SOL    HW1 6077   0.754   4.720   0.735
  955SOL    HW2 6078   0.612   4.793   0.703
  956SOL     OW 6079   0.686   4.885   1.803
  956SOL    HW1 6080   0.746   4.964   1.817
  956SOL    HW2 6081   0.600   4.916   1.762
  957SOL     OW 6082   0.438   4.116   1.499
  957SOL    HW1 6083   0.520   4.060   1.508
  957SOL    HW2 6084   0.357   4.058   1.503
  958SOL     OW 6085   1.603   4.171   0.737
  958SOL    HW1 6086   1.529   4.217   0.687
  958SOL    HW2 6087   1.654   4.239   0.790
  959SOL     OW 6088   0.240   4.815   0.886
  959SOL    HW1 6089   0.254   4.731   0.938
  959SOL    HW2 6090   0.185   4.879   0.941
  960SOL     OW 6091   0.606   4.688   0.123
  960SOL    HW1 6092   0.613   4.772   0.069
  960SOL    HW2 6093   0.652   4.701   0.211
  961SOL     OW 6094   0.122   4.367   0.563
  961SOL    HW1 6095   0.077   4.279   0.580
  961SOL    HW2 6096   0.121   4.421   0.647
  962SOL     OW 6097   1.641   4.832   0.432
  962SOL    HW1 6098   1.727   4.834   0.380
  962SOL    HW2 6099   1.655   4.879   0.520
  963SOL     OW 6100   0.113   4.461   1.597
  963SOL    HW1 6101   0.201   4.448   1.642
  963SOL    HW2 6102   0.100   4.558   1.575
  964SOL     OW 6103   1.293   4.952   1.423
  964SOL    HW1 6104   1.330   4.879   1.365
  964SOL    HW2 6105   1.345   4.957   1.508
  965SOL     OW 6106   0.809   3.728   0.502
  965SOL    HW1 6107   0.849   3.819   0.493
  965SOL    HW2 6108   0.709   3.736   0.508
  966SOL     OW 6109   0.197   4.700   1.264
  966SOL    HW1 6110   0.286   4.655   1.250
  966SOL    HW2 6111   0.124   4.635   1.245
  967SOL     OW 6112   0.317   3.975   1.801
  967SOL    HW1 6113   0.388   4.046   1.807
  967SOL    HW2 6114   0.229   4.014   1.829
  968SOL     OW 6115   0.598   4.453   0.270
  968SOL    HW1 6116   0.622   4.522   0.202
  968SOL    HW2 6117   0.520   4.486   0.324
  969SOL     OW 6118   1.281   4.069   0.944
  969SOL    HW1 6119   1.195   4.019   0.931
  969SOL    HW2 6120   1.343   4.015   1.000
  970SOL     OW 6121   0.807   4.329   1.465
  970SOL    HW1 6122   0.760   4.326   1.554
  970SOL    HW2 6123   0.756   4.274   1.399
  971SOL     OW 6124   1.394   4.193   1.674
  971SOL    HW1 6125   1.374   4.236   1.762
  971SOL    HW2 6126   1.472   4.131   1.683
  972SOL     OW 6127   0.973   4.614   1.572
  972SOL    HW1 6128   1.019   4.530   1.543
  972SOL    HW2 6129   0.917   4.648   1.497
  973SOL     OW 6130   0.991   4.134   1.242
  973SOL    HW1 6131   0.914   4.168   1.296
  973SOL    HW2 6132   0.957   4.083   1.163
  974SOL     OW 6133   1.041   4.425   0.429
  974SOL    HW1 6134   1.067   4.421   0.525
  974SOL    HW2 6135   0.956   4.374   0.415
  975SOL     OW 6136   0.076   4.535   0.789
  975SOL    HW1 6137   0.175   4.523   0.798
  975SOL    HW2 6138   0.052   4.630   0.810
  976SOL     OW 6139   0.865   4.072   0.195
  976SOL    HW1 6140   0.924   4.135   0.146
  976SOL    HW2 6141   0.884   3.978   0.166
  977SOL     OW 6142   1.719   4.309   1.831
  977SOL    HW1 6143   1.693   4.398   1.795
  977SOL    HW2 6144   1.717   4.241   1.758
  978SOL     OW 6145   1.362   4.868   0.545
  978SOL    HW1 6146   1.445   4.839   0.497
  978SOL    HW2 6147   1.313   4.935   0.489
  979SOL     OW 6148   0.550   3.920   0.885
  979SOL    HW1 6149   0.545   3.915   0.985
  979SOL    HW2 6150   0.552   4.016   0.856
  980SOL     OW 6151   1.795   4.790   0.873
  980SOL    HW1 6152   1.733   4.775   0.797
  980SOL    HW2 6153   1.743   4.801   0.958
  981SOL     OW 6154   0.321   4.667   0.242
  981SOL    HW1 6155   0.403   4.706   0.200
  981SOL    HW2 6156   0.294   4.585   0.193
  982SOL     OW 6157   0.202   4.009   1.498
  982SOL    HW1 6158   0.122   4.069   1.485
  982SOL    HW2 6159   0.192   3.960   1.584
  983SOL     OW 6160   1.400   3.831   0.426
  983SOL    HW1 6161   1.376   3.794   0.336
  983SOL    HW2 6162   1.499   3.847   0.430
  984SOL     OW 6163   0.382   4.424   0.480
  984SOL    HW1 6164   0.427   4.334   0.477
  984SOL    HW2 6165   0.288   4.413   0.513
  985SOL     OW 6166   1.547   3.946   1.729
  985SOL    HW1 6167   1.542   3.983   1.821
  985SOL    HW2 6168   1.475   3.877   1.717
  986SOL     OW 6169   0.614   3.846   0.117
  986SOL    HW1 6170   0.712   3.824   0.124
  986SOL    HW2 6171   0.583   3.829   0.024
  987SOL     OW 6172   0.781   3.988   1.749
  987SOL    HW1 6173   0.848   3.927   1.792
  987SOL    HW2 6174   0.708   4.007   1.814
  988SOL     OW 6175   1.351   4.314   1.433
  988SOL    HW1 6176   1.379   4.271   1.518
  988SOL    HW2 6177   1.376   4.410   1.434
  989SOL     OW 6178   0.922   4.227   0.899
  989SOL    HW1 6179   0.897   4.218   0.803
  989SOL    HW2 6180   0.970   4.145   0.930
  990SOL     OW 6181   0.539   3.788   0.512
  990SOL    HW1 6182   0.458   3.789   0.570
  990SOL    HW2 6183   0.542   3.871   0.457
  991SOL     OW 6184   0.297   3.759   0.171
  991SOL    HW1 6185   0.346   3.843   0.150
  991SOL    HW2 6186   0.359   3.694   0.216
  992SOL     OW 6187   0.935   3.960   0.480
  992SOL    HW1 6188   0.887   4.001   0.402
  992SOL    HW2 6189   1.034   3.958   0.461
  993SOL     OW 6190   1.076   4.407   1.464
  993SOL    HW1 6191   0.996   4.346   1.467
  993SOL    HW2 6192   1.157   4.354   1.440
  994SOL     OW 6193   0.459   4.876   0.741
  994SOL    HW1 6194   0.388   4.849   0.806
  994SOL    HW2 6195   0.433   4.848   0.648
  995SOL     OW 6196   1.032   4.273   0.016
  995SOL    HW1 6197   0.991   4.355  -0.023
  995SOL    HW2 6198   1.096   4.299   0.089
  996SOL     OW 6199   0.078   4.280   1.386
  996SOL    HW1 6200   0.170   4.279   1.345
  996SOL    HW2 6201   0.072   4.354   1.453
  997SOL     OW 6202   0.561   3.946   1.147
  997SOL    HW1 6203   0.599   3.862   1.184
  997SOL    HW2 6204   0.473   3.965   1.191
  998SOL     OW 6205   0.866   4.178   0.642
  998SOL    HW1 6206   0.834   4.250   0.580
  998SOL    HW2 6207   0.890   4.097   0.589
  999SOL     OW 6208   1.017   3.763   0.753
  999SOL    HW1 6209   0.945   3.768   0.684
  999SOL    HW2 6210   0.993   3.694   0.822
 1000SOL     OW 6211   1.429   4.897   0.867
 1000SOL    HW1 6212   1.374   4.813   0.860
 1000SOL    HW2 6213   1.455   4.926   0.775
 1001SOL     OW 6214   1.466   4.314   0.992
 1001SOL    HW1 6215   1.436   4.219   0.999
 1001SOL    HW2 6216   1.539   4.330   1.058
 1002SOL     OW 6217   1.857   4.557   0.377
 1002SOL    HW1 6218   1.899   4.493   0.441
 1002SOL    HW2 6219   1.819   4.506   0.299
 1003SOL     OW 6220   1.390   4.299   0.078
 1003SOL    HW1 6221   1.336   4.278   0.159
 1003SOL    HW2 6222   1.481   4.258   0.087
 1004SOL     OW 6223   0.527   3.980   0.328
 1004SOL    HW1 6224   0.554   3.921   0.253
 1004SOL    HW2 6225   0.527   4.075   0.297
 1005SOL     OW 6226   1.754   4.947   1.588
 1005SOL    HW1 6227   1.845   4.908   1.575
 1005SOL    HW2 6228   1.762   5.043   1.612
 1006SOL     OW 6229   1.638   4.823   1.079
 1006SOL    HW1 6230   1.643   4.904   1.138
 1006SOL    HW2 6231   1.552   4.825   1.028
 1007SOL     OW 6232   0.915   3.813   1.402
 1007SOL    HW1 6233   0.940   3.793   1.307
 1007SOL    HW2 6234   0.987   3.869   1.444
 1008SOL     OW 6235   0.980   4.840   1.719
 1008SOL    HW1 6236   0.881   4.846   1.729
 1008SOL    HW2 6237   1.003   4.760   1.663
 1009SOL     OW 6238   0.705   4.774   0.368
 1009SOL    HW1 6239   0.691   4.781   0.467
 1009SOL    HW2 6240   0.789   4.723   0.350
 1010SOL     OW 6241   0.410   4.537   1.251
 1010SOL    HW1 6242   0.496   4.549   1.301
 1010SOL    HW2 6243   0.368   4.450   1.278
 1011SOL     OW 6244   1.274   4.110   1.262
 1011SOL    HW1 6245   1.295   4.184   1.326
 1011SOL    HW2 6246   1.185   4.127   1.219
 1012SOL     OW 6247   0.367   4.824   0.501
 1012SOL    HW1 6248   0.360   4.907   0.445
 1012SOL    HW2 6249   0.371   4.744   0.441
 1013SOL     OW 6250   0.566   4.261   0.865
 1013SOL    HW1 6251   0.578   4.327   0.791
 1013SOL    HW2 6252   0.612   4.295   0.948
 1014SOL     OW 6253   0.402   4.475   1.598
 1014SOL    HW1 6254   0.470   4.530   1.551
 1014SOL    HW2 6255   0.442   4.387   1.625
 1015SOL     OW 6256   1.587   4.503   1.670
 1015SOL    HW1 6257   1.495   4.541   1.665
 1015SOL    HW2 6258   1.647   4.550   1.605
 1016SOL     OW 6259   1.013   3.829   1.770
 1016SOL    HW1 6260   1.019   3.914   1.718
 1016SOL    HW2 6261   1.045   3.753   1.713
 1017SOL     OW 6262   0.504   3.774   1.740
 1017SOL    HW1 6263   0.462   3.717   1.670
 1017SOL    HW2 6264   0.438   3.843   1.772
 1018SOL     OW 6265   0.573   4.594   1.029
 1018SOL    HW1 6266   0.617   4.683   1.020
 1018SOL    HW2 6267   0.510   4.594   1.106
 1019SOL     OW 6268   1.360   4.586   1.045
 1019SOL    HW1 6269   1.285   4.586   0.979
 1019SOL    HW2 6270   1.397   4.494   1.054
 1020SOL     OW 6271   1.209   4.249   0.275
 1020SOL    HW1 6272   1.222   4.165   0.329
 1020SOL    HW2 6273   1.180   4.323   0.335
 1021SOL     OW 6274   0.307   3.937   1.231
 1021SOL    HW1 6275   0.284   3.974   1.321
 1021SOL    HW2 6276   0.277   3.842   1.225
 1022SOL     OW 6277   0.037   5.034   1.282
 1022SOL    HW1 6278   0.090   4.985   1.350
 1022SOL    HW2 6279   0.059   5.132   1.287
 1023SOL     OW 6280   0.732   4.358   1.064
 1023SOL    HW1 6281   0.791   4.332   0.988
 1023SOL    HW2 6282   0.704   4.454   1.053
 1024SOL     OW 6283   1.728   4.659   1.854
 1024SOL    HW1 6284   1.682   4.652   1.765
 1024SOL    HW2 6285   1.666   4.703   1.920
 1025SOL     OW 6286   0.307   3.787   0.618
 1025SOL    HW1 6287   0.296   3.881   0.651
 1025SOL    HW2 6288   0.302   3.724   0.695
 1026SOL     OW 6289   1.622   4.091   0.374
 1026SOL    HW1 6290   1.624   4.015   0.438
 1026SOL    HW2 6291   1.574   4.168   0.414
 1027SOL     OW 6292   1.023   4.490   0.966
 1027SOL    HW1 6293   1.038   4.511   1.062
 1027SOL    HW2 6294   0.993   4.395   0.957
 1028SOL     OW 6295   0.350   4.622   1.804
 1028SOL    HW1 6296   0.426   4.666   1.852
 1028SOL    HW2 6297   0.385   4.575   1.722
 1029SOL     OW 6298   1.540   3.998   0.125
 1029SOL    HW1 6299   1.479   3.923   0.148
 1029SOL    HW2 6300   1.562   4.050   0.208
 1030SOL     OW 6301   1.303   4.562   0.042
 1030SOL    HW1 6302   1.337   4.469   0.057
 1030SOL    HW2 6303   1.321   4.589  -0.053
 1031SOL     OW 6304   0.319   4.534   0.949
 1031SOL    HW1 6305   0.412   4.570   0.954
 1031SOL    HW2 6306   0.313   4.449   1.001
 1032SOL     OW 6307   0.339   4.233   1.006
 1032SOL    HW1 6308   0.287   4.150   0.989
 1032SOL    HW2 6309   0.416   4.238   0.942
 1033SOL     OW 6310   1.138   4.104   1.678
 1033SOL    HW1 6311   1.093   4.167   1.742
 1033SOL    HW2 6312   1.231   4.135   1.661
 1034SOL     OW 6313   1.160   3.931   1.477
 1034SOL    HW1 6314   1.160   3.995   1.554
 1034SOL    HW2 6315   1.188   3.979   1.394
 1035SOL     OW 6316   0.008   5.050   0.200
 1035SOL    HW1 6317  -0.085   5.071   0.169
 1035SOL    HW2 6318   0.018   4.951   0.213
 1036SOL     OW 6319   1.002   4.520   1.238
 1036SOL    HW1 6320   1.043   4.488   1.324
 1036SOL    HW2 6321   0.906   4.493   1.235
 1037SOL     OW 6322   0.040   4.268   1.114
 1037SOL    HW1 6323   0.125   4.235   1.073
 1037SOL    HW2 6324   0.053   4.283   1.212
 1038SOL     OW 6325   0.189   4.244   1.722
 1038SOL    HW1 6326   0.248   4.204   1.652
 1038SOL    HW2 6327   0.131   4.315   1.681
 1039SOL     OW 6328   1.369   4.674   1.660
 1039SOL    HW1 6329   1.408   4.763   1.680
 1039SOL    HW2 6330   1.379   4.654   1.563
 1040SOL     OW 6331   0.815   4.296   0.325
 1040SOL    HW1 6332   0.822   4.207   0.279
 1040SOL    HW2 6333   0.721   4.330   0.317
 1041SOL     OW 6334   1.657   4.328   1.206
 1041SOL    HW1 6335   1.619   4.259   1.268
 1041SOL    HW2 6336   1.739   4.292   1.162
 1042SOL     OW 6337   0.671   4.188   1.269
 1042SOL    HW1 6338   0.637   4.099   1.239
 1042SOL    HW2 6339   0.697   4.242   1.189
 1043SOL     OW 6340   0.473   4.224   0.191
 1043SOL    HW1 6341   0.534   4.304   0.195
 1043SOL    HW2 6342   0.378   4.255   0.198
 1044SOL     OW 6343   0.159   4.861   1.466
 1044SOL    HW1 6344   0.181   4.800   1.542
 1044SOL    HW2 6345   0.169   4.812   1.380
 1045SOL     OW 6346   1.347   4.783   1.234
 1045SOL    HW1 6347   1.371   4.720   1.160
 1045SOL    HW2 6348   1.257   4.823   1.216
 1046SOL     OW 6349   0.083   4.982   1.022
 1046SOL    HW1 6350   0.078   4.981   1.122
 1046SOL    HW2 6351   0.000   4.941   0.984
 1047SOL     OW 6352   0.903   3.810   0.133
 1047SOL    HW1 6353   0.954   3.811   0.047
 1047SOL    HW2 6354   0.959   3.768   0.204
 1048SOL     OW 6355   1.726   3.859   0.523
 1048SOL    HW1 6356   1.799   3.842   0.456
 1048SOL    HW2 6357   1.695   3.772   0.561
 1049SOL     OW 6358   1.841   3.899   0.963
 1049SOL    HW1 6359   1.880   3.814   0.927
 1049SOL    HW2 6360   1.743   3.901   0.944
 1050SOL     OW 6361   0.263   4.050   0.720
 1050SOL    HW1 6362   0.184   4.101   0.686
 1050SOL    HW2 6363   0.254   4.035   0.818
 1051SOL     OW 6364   0.822   4.726   1.372
 1051SOL    HW1 6365   0.862   4.725   1.280
 1051SOL    HW2 6366   0.832   4.818   1.412
 1052SOL     OW 6367   0.916   4.634   0.291
 1052SOL    HW1 6368   0.979   4.672   0.223
 1052SOL    HW2 6369   0.956   4.551   0.330
 1053SOL     OW 6370   0.372   5.012   1.490
 1053SOL    HW1 6371   0.359   5.105   1.456
 1053SOL    HW2 6372   0.288   4.960   1.477
 1054SOL     OW 6373   1.614   5.016   1.289
 1054SOL    HW1 6374   1.674   5.019   1.369
 1054SOL    HW2 6375   1.539   5.080   1.302
 1055SOL     OW 6376   1.039   4.822   0.696
 1055SOL    HW1 6377   0.969   4.775   0.750
 1055SOL    HW2 6378   1.098   4.754   0.653
 1056SOL     OW 6379   1.014   3.960   0.971
 1056SOL    HW1 6380   1.006   3.924   0.878
 1056SOL    HW2 6381   1.012   3.884   1.036
 1057SOL     OW 6382   1.709   4.109   1.381
 1057SOL    HW1 6383   1.782   4.178   1.385
 1057SOL    HW2 6384   1.737   4.034   1.322
 1058SOL     OW 6385   0.105   4.737   1.726
 1058SOL    HW1 6386   0.028   4.704   1.780
 1058SOL    HW2 6387   0.190   4.707   1.768
 1059SOL     OW 6388   0.672   3.927   1.489
 1059SOL    HW1 6389   0.762   3.911   1.449
 1059SOL    HW2 6390   0.680   3.932   1.588
 1060SOL     OW 6391   0.075   4.069   0.033
 1060SOL    HW1 6392  -0.017   4.041   0.004
 1060SOL    HW2 6393   0.106   4.146  -0.023
 1061SOL     OW 6394   1.440   4.580   1.398
 1061SOL    HW1 6395   1.383   4.632   1.335
 1061SOL    HW2 6396   1.536   4.592   1.374
 1062SOL     OW 6397   0.072   3.890   0.318
 1062SOL    HW1 6398   0.055   3.973   0.264
 1062SOL    HW2 6399   0.162   3.853   0.296
 1063SOL     OW 6400   0.613   4.566   1.431
 1063SOL    HW1 6401   0.669   4.647   1.414
 1063SOL    HW2 6402   0.672   4.486   1.434
 1064SOL     OW 6403   0.716   4.289   1.708
 1064SOL    HW1 6404   0.735   4.354   1.782
 1064SOL    HW2 6405   0.776   4.209   1.717
 1065SOL     OW 6406   1.450   4.944   1.633
 1065SOL    HW1 6407   1.441   4.934   1.732
 1065SOL    HW2 6408   1.546   4.937   1.607
 1066SOL     OW 6409   1.674   4.607   1.254
 1066SOL    HW1 6410   1.647   4.518   1.217
 1066SOL    HW2 6411   1.675   4.675   1.181
 1067SOL     OW 6412   1.225   4.049   0.449
 1067SOL    HW1 6413   1.290   3.975   0.438
 1067SOL    HW2 6414   1.245   4.099   0.533
 1068SOL     OW 6415   0.594   4.469   0.652
 1068SOL    HW1 6416   0.644   4.554   0.633
 1068SOL    HW2 6417   0.506   4.471   0.604
 1069SOL     OW 6418   1.730   4.658   1.517
 1069SOL    HW1 6419   1.768   4.749   1.532
 1069SOL    HW2 6420   1.722   4.641   1.418
 1070SOL     OW 6421   0.859   4.680   0.861
 1070SOL    HW1 6422   0.913   4.611   0.909
 1070SOL    HW2 6423   0.827   4.749   0.927
 1071SOL     OW 6424   1.083   4.708   0.087
 1071SOL    HW1 6425   1.060   4.761   0.005
 1071SOL    HW2 6426   1.164   4.652   0.068
 1072SOL     OW 6427   0.079   4.964   0.653
 1072SOL    HW1 6428   0.078   4.917   0.741
 1072SOL    HW2 6429   0.161   4.936   0.602
 1073SOL     OW 6430   0.428   4.148   0.520
 1073SOL    HW1 6431   0.458   4.076   0.458
 1073SOL    HW2 6432   0.389   4.108   0.603
 1074SOL     OW 6433   0.317   4.271   1.280
 1074SOL    HW1 6434   0.355   4.212   1.352
 1074SOL    HW2 6435   0.357   4.245   1.192
 1075SOL     OW 6436   1.424   3.938   1.112
 1075SOL    HW1 6437   1.476   3.873   1.167
 1075SOL    HW2 6438   1.375   4.001   1.173
 1076SOL     OW 6439   1.001   3.758   1.154
 1076SOL    HW1 6440   0.938   3.686   1.123
 1076SOL    HW2 6441   1.094   3.722   1.154
 1077SOL     OW 6442   1.352   3.776   0.168
 1077SOL    HW1 6443   1.387   3.735   0.084
 1077SOL    HW2 6444   1.262   3.738   0.188
 1078SOL     OW 6445   1.300   4.177   0.691
 1078SOL    HW1 6446   1.241   4.257   0.695
 1078SOL    HW2 6447   1.315   4.142   0.784
 1079SOL     OW 6448   1.593   3.945   0.882
 1079SOL    HW1 6449   1.509   3.944   0.936
 1079SOL    HW2 6450   1.595   4.028   0.826
 1080SOL     OW 6451   0.039   4.801   0.300
 1080SOL    HW1 6452   0.138   4.790   0.291
 1080SOL    HW2 6453  -0.001   4.715   0.332
 1081SOL     OW 6454   0.230   4.352   1.975
 1081SOL    HW1 6455   0.137   4.350   2.012
 1081SOL    HW2 6456   0.231   4.313   1.883
 1082SOL     OW 6457   0.225   3.999   2.858
 1082SOL    HW1 6458   0.260   3.982   2.950
 1082SOL    HW2 6459   0.137   3.954   2.846
 1083SOL     OW 6460   0.019   4.092   2.509
 1083SOL    HW1 6461  -0.063   4.135   2.548
 1083SOL    HW2 6462  -0.009   4.019   2.446
 1084SOL     OW 6463   1.135   4.427   2.579
 1084SOL    HW1 6464   1.192   4.505   2.554
 1084SOL    HW2 6465   1.075   4.453   2.655
 1085SOL     OW 6466   0.768   4.868   2.885
 1085SOL    HW1 6467   0.690   4.885   2.945
 1085SOL    HW2 6468   0.802   4.955   2.849
 1086SOL     OW 6469   0.850   4.522   3.685
 1086SOL    HW1 6470   0.846   4.598   3.750
 1086SOL    HW2 6471   0.872   4.558   3.594
 1087SOL     OW 6472   0.685   4.736   2.527
 1087SOL    HW1 6473   0.754   4.720   2.597
 1087SOL    HW2 6474   0.612   4.793   2.565
 1088SOL     OW 6475   0.686   4.885   3.665
 1088SOL    HW1 6476   0.746   4.964   3.679
 1088SOL    HW2 6477   0.600   4.916   3.624
 1089SOL     OW 6478   0.438   4.116   3.361
 1089SOL    HW1 6479   0.520   4.060   3.370
 1089SOL    HW2 6480   0.357   4.058   3.365
 1090SOL     OW 6481   0.240   4.815   2.748
 1090SOL    HW1 6482   0.254   4.731   2.800
 1090SOL    HW2 6483   0.185   4.879   2.803
 1091SOL     OW 6484   0.606   4.688   1.985
 1091SOL    HW1 6485   0.613   4.772   1.931
 1091SOL    HW2 6486   0.652   4.701   2.073
 1092SOL     OW 6487   0.122   4.367   2.425
 1092SOL    HW1 6488   0.077   4.279   2.442
 1092SOL    HW2 6489   0.121   4.421   2.509
 1093SOL     OW 6490   1.689   4.646   2.474
 1093SOL    HW1 6491   1.784   4.617   2.482
 1093SOL    HW2 6492   1.681   4.711   2.399
 1094SOL     OW 6493   1.641   4.832   2.294
 1094SOL    HW1 6494   1.727   4.834   2.242
 1094SOL    HW2 6495   1.655   4.879   2.382
 1095SOL     OW 6496   0.113   4.461   3.459
 1095SOL    HW1 6497   0.201   4.448   3.504
 1095SOL    HW2 6498   0.100   4.558   3.437
 1096SOL     OW 6499   1.293   4.952   3.285
 1096SOL    HW1 6500   1.330   4.879   3.227
 1096SOL    HW2 6501   1.345   4.957   3.370
 1097SOL     OW 6502   0.809   3.728   2.364
 1097SOL    HW1 6503   0.849   3.819   2.355
 1097SOL    HW2 6504   0.709   3.736   2.370
 1098SOL     OW 6505   0.197   4.700   3.126
 1098SOL    HW1 6506   0.286   4.655   3.112
 1098SOL    HW2 6507   0.124   4.635   3.107
 1099SOL     OW 6508   1.525   4.723   2.052
 1099SOL    HW1 6509   1.462   4.647   2.065
 1099SOL    HW2 6510   1.573   4.741   2.138
 1100SOL     OW 6511   0.317   3.975   3.663
 1100SOL    HW1 6512   0.388   4.046   3.669
 1100SOL    HW2 6513   0.229   4.014   3.691
 1101SOL     OW 6514   0.598   4.453   2.132
 1101SOL    HW1 6515   0.622   4.522   2.064
 1101SOL    HW2 6516   0.520   4.486   2.186
 1102SOL     OW 6517   1.281   4.069   2.806
 1102SOL    HW1 6518   1.195   4.019   2.793
 1102SOL    HW2 6519   1.343   4.015   2.862
 1103SOL     OW 6520   0.807   4.329   3.327
 1103SOL    HW1 6521   0.760   4.326   3.416
 1103SOL    HW2 6522   0.756   4.274   3.261
 1104SOL     OW 6523   1.394   4.193   3.536
 1104SOL    HW1 6524   1.374   4.236   3.624
 1104SOL    HW2 6525   1.472   4.131   3.545
 1105SOL     OW 6526   0.973   4.614   3.434
 1105SOL    HW1 6527   1.019   4.530   3.405
 1105SOL    HW2 6528   0.917   4.648   3.359
 1106SOL     OW 6529   0.991   4.134   3.104
 1106SOL    HW1 6530   0.914   4.168   3.158
 1106SOL    HW2 6531   0.957   4.083   3.025
 1107SOL     OW 6532   1.041   4.425   2.291
 1107SOL    HW1 6533   1.067   4.421   2.387
 1107SOL    HW2 6534   0.956   4.374   2.277
 1108SOL     OW 6535   0.076   4.535   2.651
 1108SOL    HW1 6536   0.175   4.523   2.660
 1108SOL    HW2 6537   0.052   4.630   2.672
 1109SOL     OW 6538   0.865   4.072   2.057
 1109SOL    HW1 6539   0.924   4.135   2.008
 1109SOL    HW2 6540   0.884   3.978   2.028
 1110SOL     OW 6541   1.719   4.309   3.693
 1110SOL    HW1 6542   1.693   4.398   3.657
 1110SOL    HW2 6543   1.717   4.241   3.620
 1111SOL     OW 6544   1.362   4.868   2.407
 1111SOL    HW1 6545   1.445   4.839   2.359
 1111SOL    HW2 6546   1.313   4.935   2.351
 1112SOL     OW 6547   0.550   3.920   2.747
 1112SOL    HW1 6548   0.545   3.915   2.847
 1112SOL    HW2 6549   0.552   4.016   2.718
 1113SOL     OW 6550   1.795   4.790   2.735
 1113SOL    HW1 6551   1.733   4.775   2.659
 1113SOL    HW2 6552   1.743   4.801   2.820
 1114SOL     OW 6553   0.321   4.667   2.104
 1114SOL    HW1 6554   0.403   4.706   2.062
 1114SOL    HW2 6555   0.294   4.585   2.055
 1115SOL     OW 6556   1.458   4.459   2.590
 1115SOL    HW1 6557   1.453   4.394   2.665
 1115SOL    HW2 6558   1.538   4.518   2.603
 1116SOL     OW 6559   0.202   4.009   3.360
 1116SOL    HW1 6560   0.122   4.069   3.347
 1116SOL    HW2 6561   0.192   3.960   3.446
 1117SOL     OW 6562   0.382   4.424   2.342
 1117SOL    HW1 6563   0.427   4.334   2.339
 1117SOL    HW2 6564   0.288   4.413   2.375
 1118SOL     OW 6565   1.547   3.946   3.591
 1118SOL    HW1 6566   1.542   3.983   3.683
 1118SOL    HW2 6567   1.475   3.877   3.579
 1119SOL     OW 6568   0.614   3.846   1.979
 1119SOL    HW1 6569   0.712   3.824   1.986
 1119SOL    HW2 6570   0.583   3.829   1.886
 1120SOL     OW 6571   0.781   3.988   3.611
 1120SOL    HW1 6572   0.848   3.927   3.654
 1120SOL    HW2 6573   0.708   4.007   3.676
 1121SOL     OW 6574   1.351   4.314   3.295
 1121SOL    HW1 6575   1.379   4.271   3.380
 1121SOL    HW2 6576   1.376   4.410   3.296
 1122SOL     OW 6577   0.922   4.227   2.761
 1122SOL    HW1 6578   0.897   4.218   2.665
 1122SOL    HW2 6579   0.970   4.145   2.792
 1123SOL     OW 6580   0.539   3.788   2.374
 1123SOL    HW1 6581   0.458   3.789   2.432
 1123SOL    HW2 6582   0.542   3.871   2.319
 1124SOL     OW 6583   0.297   3.759   2.033
 1124SOL    HW1 6584   0.346   3.843   2.012
 1124SOL    HW2 6585   0.359   3.694   2.078
 1125SOL     OW 6586   0.935   3.960   2.342
 1125SOL    HW1 6587   0.887   4.001   2.264
 1125SOL    HW2 6588   1.034   3.958   2.323
 1126SOL     OW 6589   1.076   4.407   3.326
 1126SOL    HW1 6590   0.996   4.346   3.329
 1126SOL    HW2 6591   1.157   4.354   3.302
 1127SOL     OW 6592   0.459   4.876   2.603
 1127SOL    HW1 6593   0.388   4.849   2.668
 1127SOL    HW2 6594   0.433   4.848   2.510
 1128SOL     OW 6595   1.032   4.273   1.878
 1128SOL    HW1 6596   0.991   4.355   1.839
 1128SOL    HW2 6597   1.096   4.299   1.951
 1129SOL     OW 6598   0.078   4.280   3.248
 1129SOL    HW1 6599   0.170   4.279   3.207
 1129SOL    HW2 6600   0.072   4.354   3.315
 1130SOL     OW 6601   0.561   3.946   3.009
 1130SOL    HW1 6602   0.599   3.862   3.046
 1130SOL    HW2 6603   0.473   3.965   3.053
 1131SOL     OW 6604   0.866   4.178   2.504
 1131SOL    HW1 6605   0.834   4.250   2.442
 1131SOL    HW2 6606   0.890   4.097   2.451
 1132SOL     OW 6607   1.429   4.897   2.729
 1132SOL    HW1 6608   1.374   4.813   2.722
 1132SOL    HW2 6609   1.455   4.926   2.637
 1133SOL     OW 6610   1.466   4.314   2.854
 1133SOL    HW1 6611   1.436   4.219   2.861
 1133SOL    HW2 6612   1.539   4.330   2.920
 1134SOL     OW 6613   1.857   4.557   2.239
 1134SOL    HW1 6614   1.899   4.493   2.303
 1134SOL    HW2 6615   1.819   4.506   2.161
 1135SOL     OW 6616   1.390   4.299   1.940
 1135SOL    HW1 6617   1.336   4.278   2.021
 1135SOL    HW2 6618   1.481   4.258   1.949
 1136SOL     OW 6619   0.527   3.980   2.190
 1136SOL    HW1 6620   0.554   3.921   2.115
 1136SOL    HW2 6621   0.527   4.075   2.159
 1137SOL     OW 6622   1.754   4.947   3.450
 1137SOL    HW1 6623   1.845   4.908   3.437
 1137SOL    HW2 6624   1.762   5.043   3.474
 1138SOL     OW 6625   1.638   4.823   2.941
 1138SOL    HW1 6626   1.643   4.904   3.000
 1138SOL    HW2 6627   1.552   4.825   2.890
 1139SOL     OW 6628   0.915   3.813   3.264
 1139SOL    HW1 6629   0.940   3.793   3.169
 1139SOL    HW2 6630   0.987   3.869   3.306
 1140SOL     OW 6631   0.980   4.840   3.581
 1140SOL    HW1 6632   0.881   4.846   3.591
 1140SOL    HW2 6633   1.003   4.760   3.525
 1141SOL     OW 6634   0.705   4.774   2.230
 1141SOL    HW1 6635   0.691   4.781   2.329
 1141SOL    HW2 6636   0.789   4.723   2.212
 1142SOL     OW 6637   0.410   4.537   3.113
 1142SOL    HW1 6638   0.496   4.549   3.163
 1142SOL    HW2 6639   0.368   4.450   3.140
 1143SOL     OW 6640   1.274   4.110   3.124
 1143SOL    HW1 6641   1.295   4.184   3.188
 1143SOL    HW2 6642   1.185   4.127   3.081
 1144SOL     OW 6643   0.367   4.824   2.363
 1144SOL    HW1 6644   0.360   4.907   2.307
 1144SOL    HW2 6645   0.371   4.744   2.303
 1145SOL     OW 6646   0.566   4.261   2.727
 1145SOL    HW1 6647   0.578   4.327   2.653
 1145SOL    HW2 6648   0.612   4.295   2.810
 1146SOL     OW 6649   0.402   4.475   3.460
 1146SOL    HW1 6650   0.470   4.530   3.413
 1146SOL    HW2 6651   0.442   4.387   3.487
 1147SOL     OW 6652   1.587   4.503   3.532
 1147SOL    HW1 6653   1.495   4.541   3.527
 1147SOL    HW2 6654   1.647   4.550   3.467
 1148SOL     OW 6655   1.013   3.829   3.632
 1148SOL    HW1 6656   1.019   3.914   3.580
 1148SOL    HW2 6657   1.045   3.753   3.575
 1149SOL     OW 6658   0.504   3.774   3.602
 1149SOL    HW1 6659   0.462   3.717   3.532
 1149SOL    HW2 6660   0.438   3.843   3.634
 1150SOL     OW 6661   0.573   4.594   2.891
 1150SOL    HW1 6662   0.617   4.683   2.882
 1150SOL    HW2 6663   0.510   4.594   2.968
 1151SOL     OW 6664   1.360   4.586   2.907
 1151SOL    HW1 6665   1.285   4.586   2.841
 1151SOL    HW2 6666   1.397   4.494   2.916
 1152SOL     OW 6667   1.209   4.249   2.137
 1152SOL    HW1 6668   1.222   4.165   2.191
 1152SOL    HW2 6669   1.180   4.323   2.197
 1153SOL     OW 6670   0.307   3.937   3.093
 1153SOL    HW1 6671   0.284   3.974   3.183
 1153SOL    HW2 6672   0.277   3.842   3.087
 1154SOL     OW 6673   0.037   5.034   3.144
 1154SOL    HW1 6674   0.090   4.985   3.212
 1154SOL    HW2 6675   0.059   5.132   3.149
 1155SOL     OW 6676   0.732   4.358   2.926
 1155SOL    HW1 6677   0.791   4.332   2.850
 1155SOL    HW2 6678   0.704   4.454   2.915
 1156SOL     OW 6679   1.728   4.659   3.716
 1156SOL    HW1 6680   1.682   4.652   3.627
 1156SOL    HW2 6681   1.666   4.703   3.782
 1157SOL     OW 6682   0.307   3.787   2.480
 1157SOL    HW1 6683   0.296   3.881   2.513
 1157SOL    HW2 6684   0.302   3.724   2.557
 1158SOL     OW 6685   1.023   4.490   2.828
 1158SOL    HW1 6686   1.038   4.511   2.924
 1158SOL    HW2 6687   0.993   4.395   2.819
 1159SOL     OW 6688   0.350   4.622   3.666
 1159SOL    HW1 6689   0.426   4.666   3.714
 1159SOL    HW2 6690   0.385   4.575   3.584
 1160SOL     OW 6691   1.303   4.562   1.904
 1160SOL    HW1 6692   1.337   4.469   1.919
 1160SOL    HW2 6693   1.321   4.589   1.809
 1161SOL     OW 6694   0.319   4.534   2.811
 1161SOL    HW1 6695   0.412   4.570   2.816
 1161SOL    HW2 6696   0.313   4.449   2.863
 1162SOL     OW 6697   0.339   4.233   2.868
 1162SOL    HW1 6698   0.287   4.150   2.851
 1162SOL    HW2 6699   0.416   4.238   2.804
 1163SOL     OW 6700   1.138   4.104   3.540
 1163SOL    HW1 6701   1.093   4.167   3.604
 1163SOL    HW2 6702   1.231   4.135   3.523
 1164SOL     OW 6703   1.160   3.931   3.339
 1164SOL    HW1 6704   1.160   3.995   3.416
 1164SOL    HW2 6705   1.188   3.979   3.256
 1165SOL     OW 6706   0.008   5.050   2.062
 1165SOL    HW1 6707  -0.085   5.071   2.031
 1165SOL    HW2 6708   0.018   4.951   2.075
 1166SOL     OW 6709   1.002   4.520   3.100
 1166SOL    HW1 6710   1.043   4.488   3.186
 1166SOL    HW2 6711   0.906   4.493   3.097
 1167SOL     OW 6712   0.040   4.268   2.976
 1167SOL    HW1 6713   0.125   4.235   2.935
 1167SOL    HW2 6714   0.053   4.283   3.074
 1168SOL     OW 6715   0.189   4.244   3.584
 1168SOL    HW1 6716   0.248   4.204   3.514
 1168SOL    HW2 6717   0.131   4.315   3.543
 1169SOL     OW 6718   1.369   4.674   3.522
 1169SOL    HW1 6719   1.408   4.763   3.542
 1169SOL    HW2 6720   1.379   4.654   3.425
 1170SOL     OW 6721   0.815   4.296   2.187
 1170SOL    HW1 6722   0.822   4.207   2.141
 1170SOL    HW2 6723   0.721   4.330   2.179
 1171SOL     OW 6724   1.657   4.328   3.068
 1171SOL    HW1 6725   1.619   4.259   3.130
 1171SOL    HW2 6726   1.739   4.292   3.024
 1172SOL     OW 6727   0.671   4.188   3.131
 1172SOL    HW1 6728   0.637   4.099   3.101
 1172SOL    HW2 6729   0.697   4.242   3.051
 1173SOL     OW 6730   0.473   4.224   2.053
 1173SOL    HW1 6731   0.534   4.304   2.057
 1173SOL    HW2 6732   0.378   4.255   2.060
 1174SOL     OW 6733   0.159   4.861   3.328
 1174SOL    HW1 6734   0.181   4.800   3.404
 1174SOL    HW2 6735   0.169   4.812   3.242
 1175SOL     OW 6736   1.347   4.783   3.096
 1175SOL    HW1 6737   1.371   4.720   3.022
 1175SOL    HW2 6738   1.257   4.823   3.078
 1176SOL     OW 6739   1.302   4.579   2.171
 1176SOL    HW1 6740   1.216   4.548   2.213
 1176SOL    HW2 6741   1.298   4.565   2.072
 1177SOL     OW 6742   0.083   4.982   2.884
 1177SOL    HW1 6743   0.078   4.981   2.984
 1177SOL    HW2 6744   0.000   4.941   2.846
 1178SOL     OW 6745   1.280   4.651   2.534
 1178SOL    HW1 6746   1.340   4.570   2.536
 1178SOL    HW2 6747   1.320   4.720   2.474
 1179SOL     OW 6748   0.263   4.050   2.582
 1179SOL    HW1 6749   0.184   4.101   2.548
 1179SOL    HW2 6750   0.254   4.035   2.680
 1180SOL     OW 6751   0.822   4.726   3.234
 1180SOL    HW1 6752   0.862   4.725   3.142
 1180SOL    HW2 6753   0.832   4.818   3.274
 1181SOL     OW 6754   0.916   4.634   2.153
 1181SOL    HW1 6755   0.979   4.672   2.085
 1181SOL    HW2 6756   0.956   4.551   2.192
 1182SOL     OW 6757   0.372   5.012   3.352
 1182SOL    HW1 6758   0.359   5.105   3.318
 1182SOL    HW2 6759   0.288   4.960   3.339
 1183SOL     OW 6760   1.614   5.016   3.151
 1183SOL    HW1 6761   1.674   5.019   3.231
 1183SOL    HW2 6762   1.539   5.080   3.164
 1184SOL     OW 6763   1.039   4.822   2.558
 1184SOL    HW1 6764   0.969   4.775   2.612
 1184SOL    HW2 6765   1.098   4.754   2.515
 1185SOL     OW 6766   1.014   3.960   2.833
 1185SOL    HW1 6767   1.006   3.924   2.740
 1185SOL    HW2 6768   1.012   3.884   2.898
 1186SOL     OW 6769   0.105   4.737   3.588
 1186SOL    HW1 6770   0.028   4.704   3.642
 1186SOL    HW2 6771   0.190   4.707   3.630
 1187SOL     OW 6772   0.672   3.927   3.351
 1187SOL    HW1 6773   0.762   3.911   3.311
 1187SOL    HW2 6774   0.680   3.932   3.450
 1188SOL     OW 6775   0.075   4.069   1.895
 1188SOL    HW1 6776  -0.017   4.041   1.866
 1188SOL    HW2 6777   0.106   4.146   1.839
 1189SOL     OW 6778   1.440   4.580   3.260
 1189SOL    HW1 6779   1.383   4.632   3.197
 1189SOL    HW2 6780   1.536   4.592   3.236
 1190SOL     OW 6781   0.072   3.890   2.180
 1190SOL    HW1 6782   0.055   3.973   2.126
 1190SOL    HW2 6783   0.162   3.853   2.158
 1191SOL     OW 6784   0.613   4.566   3.293
 1191SOL    HW1 6785   0.669   4.647   3.276
 1191SOL    HW2 6786   0.672   4.486   3.296
 1192SOL     OW 6787   0.716   4.289   3.570
 1192SOL    HW1 6788   0.735   4.354   3.644
 1192SOL    HW2 6789   0.776   4.209   3.579
 1193SOL     OW 6790   1.450   4.944   3.495
 1193SOL    HW1 6791   1.441   4.934   3.594
 1193SOL    HW2 6792   1.546   4.937   3.469
 1194SOL     OW 6793   1.674   4.607   3.116
 1194SOL    HW1 6794   1.647   4.518   3.079
 1194SOL    HW2 6795   1.675   4.675   3.043
 1195SOL     OW 6796   1.225   4.049   2.311
 1195SOL    HW1 6797   1.290   3.975   2.300
 1195SOL    HW2 6798   1.245   4.099   2.395
 1196SOL     OW 6799   0.594   4.469   2.514
 1196SOL    HW1 6800   0.644   4.554   2.495
 1196SOL    HW2 6801   0.506   4.471   2.466
 1197SOL     OW 6802   1.777   4.066   3.504
 1197SOL    HW1 6803   1.760   4.097   3.410
 1197SOL    HW2 6804   1.693   4.029   3.542
 1198SOL     OW 6805   1.730   4.658   3.379
 1198SOL    HW1 6806   1.768   4.749   3.394
 1198SOL    HW2 6807   1.722   4.641   3.280
 1199SOL     OW 6808   0.859   4.680   2.723
 1199SOL    HW1 6809   0.913   4.611   2.771
 1199SOL    HW2 6810   0.827   4.749   2.789
 1200SOL     OW 6811   1.083   4.708   1.949
 1200SOL    HW1 6812   1.060   4.761   1.867
 1200SOL    HW2 6813   1.164   4.652   1.930
 1201SOL     OW 6814   0.079   4.964   2.515
 1201SOL    HW1 6815   0.078   4.917   2.603
 1201SOL    HW2 6816   0.161   4.936   2.464
 1202SOL     OW 6817   0.428   4.148   2.382
 1202SOL    HW1 6818   0.458   4.076   2.320
 1202SOL    HW2 6819   0.389   4.108   2.465
 1203SOL     OW 6820   0.317   4.271   3.142
 1203SOL    HW1 6821   0.355   4.212   3.214
 1203SOL    HW2 6822   0.357   4.245   3.054
 1204SOL     OW 6823   1.001   3.758   3.016
 1204SOL    HW1 6824   0.938   3.686   2.985
 1204SOL    HW2 6825   1.094   3.722   3.016
 1205SOL     OW 6826   0.770   5.054   2.163
 1205SOL    HW1 6827   0.724   4.967   2.180
 1205SOL    HW2 6828   0.861   5.051   2.204
 1206SOL     OW 6829   1.300   4.177   2.553
 1206SOL    HW1 6830   1.241   4.257   2.557
 1206SOL    HW2 6831   1.315   4.142   2.646
 1207SOL     OW 6832   1.593   3.945   2.744
 1207SOL    HW1 6833   1.509   3.944   2.798
 1207SOL    HW2 6834   1.595   4.028   2.688
 1208SOL     OW 6835   0.039   4.801   2.162
 1208SOL    HW1 6836   0.138   4.790   2.153
 1208SOL    HW2 6837  -0.001   4.715   2.194
 1209SOL     OW 6838   0.230   4.352   3.837
 1209SOL    HW1 6839   0.137   4.350   3.874
 1209SOL    HW2 6840   0.231   4.313   3.745
 1210SOL     OW 6841   0.225   3.999   4.720
 1210SOL    HW1 6842   0.260   3.982   4.812
 1210SOL    HW2 6843   0.137   3.954   4.708
 1211SOL     OW 6844   0.019   4.092   4.371
 1211SOL    HW1 6845  -0.063   4.135   4.410
 1211SOL    HW2 6846  -0.009   4.019   4.308
 1212SOL     OW 6847   1.135   4.427   4.441
 1212SOL    HW1 6848   1.192   4.505   4.416
 1212SOL    HW2 6849   1.075   4.453   4.517
 1213SOL     OW 6850   1.755   4.331   3.955
 1213SOL    HW1 6851   1.743   4.318   3.856
 1213SOL    HW2 6852   1.725   4.250   4.004
 1214SOL     OW 6853   0.768   4.868   4.747
 1214SOL    HW1 6854   0.690   4.885   4.807
 1214SOL    HW2 6855   0.802   4.955   4.711
 1215SOL     OW 6856   0.685   4.736   4.389
 1215SOL    HW1 6857   0.754   4.720   4.459
 1215SOL    HW2 6858   0.612   4.793   4.427
 1216SOL     OW 6859   1.603   4.171   4.461
 1216SOL    HW1 6860   1.529   4.217   4.411
 1216SOL    HW2 6861   1.654   4.239   4.514
 1217SOL     OW 6862   0.240   4.815   4.610
 1217SOL    HW1 6863   0.254   4.731   4.662
 1217SOL    HW2 6864   0.185   4.879   4.665
 1218SOL     OW 6865   0.606   4.688   3.847
 1218SOL    HW1 6866   0.613   4.772   3.793
 1218SOL    HW2 6867   0.652   4.701   3.935
 1219SOL     OW 6868   0.122   4.367   4.287
 1219SOL    HW1 6869   0.077   4.279   4.304
 1219SOL    HW2 6870   0.121   4.421   4.371
 1220SOL     OW 6871   1.689   4.646   4.336
 1220SOL    HW1 6872   1.784   4.617   4.344
 1220SOL    HW2 6873   1.681   4.711   4.261
 1221SOL     OW 6874   1.641   4.832   4.156
 1221SOL    HW1 6875   1.727   4.834   4.104
 1221SOL    HW2 6876   1.655   4.879   4.244
 1222SOL     OW 6877   0.809   3.728   4.226
 1222SOL    HW1 6878   0.849   3.819   4.217
 1222SOL    HW2 6879   0.709   3.736   4.232
 1223SOL     OW 6880   0.197   4.700   4.988
 1223SOL    HW1 6881   0.286   4.655   4.974
 1223SOL    HW2 6882   0.124   4.635   4.969
 1224SOL     OW 6883   1.525   4.723   3.914
 1224SOL    HW1 6884   1.462   4.647   3.927
 1224SOL    HW2 6885   1.573   4.741   4.000
 1225SOL     OW 6886   0.598   4.453   3.994
 1225SOL    HW1 6887   0.622   4.522   3.926
 1225SOL    HW2 6888   0.520   4.486   4.048
 1226SOL     OW 6889   1.281   4.069   4.668
 1226SOL    HW1 6890   1.195   4.019   4.655
 1226SOL    HW2 6891   1.343   4.015   4.724
 1227SOL     OW 6892   1.041   4.425   4.153
 1227SOL    HW1 6893   1.067   4.421   4.249
 1227SOL    HW2 6894   0.956   4.374   4.139
 1228SOL     OW 6895   0.076   4.535   4.513
 1228SOL    HW1 6896   0.175   4.523   4.522
 1228SOL    HW2 6897   0.052   4.630   4.534
 1229SOL     OW 6898   0.865   4.072   3.919
 1229SOL    HW1 6899   0.924   4.135   3.870
 1229SOL    HW2 6900   0.884   3.978   3.890
 1230SOL     OW 6901   1.362   4.868   4.269
 1230SOL    HW1 6902   1.445   4.839   4.221
 1230SOL    HW2 6903   1.313   4.935   4.213
 1231SOL     OW 6904   0.550   3.920   4.609
 1231SOL    HW1 6905   0.545   3.915   4.709
 1231SOL    HW2 6906   0.552   4.016   4.580
 1232SOL     OW 6907   1.795   4.790   4.597
 1232SOL    HW1 6908   1.733   4.775   4.521
 1232SOL    HW2 6909   1.743   4.801   4.682
 1233SOL     OW 6910   0.321   4.667   3.966
 1233SOL    HW1 6911   0.403   4.706   3.924
 1233SOL    HW2 6912   0.294   4.585   3.917
 1234SOL     OW 6913   1.458   4.459   4.452
 1234SOL    HW1 6914   1.453   4.394   4.527
 1234SOL    HW2 6915   1.538   4.518   4.465
 1235SOL     OW 6916   0.382   4.424   4.204
 1235SOL    HW1 6917   0.427   4.334   4.201
 1235SOL    HW2 6918   0.288   4.413   4.237
 1236SOL     OW 6919   0.614   3.846   3.841
 1236SOL    HW1 6920   0.712   3.824   3.848
 1236SOL    HW2 6921   0.583   3.829   3.748
 1237SOL     OW 6922   0.922   4.227   4.623
 1237SOL    HW1 6923   0.897   4.218   4.527
 1237SOL    HW2 6924   0.970   4.145   4.654
 1238SOL     OW 6925   0.539   3.788   4.236
 1238SOL    HW1 6926   0.458   3.789   4.294
 1238SOL    HW2 6927   0.542   3.871   4.181
 1239SOL     OW 6928   0.297   3.759   3.895
 1239SOL    HW1 6929   0.346   3.843   3.874
 1239SOL    HW2 6930   0.359   3.694   3.940
 1240SOL     OW 6931   0.935   3.960   4.204
 1240SOL    HW1 6932   0.887   4.001   4.126
 1240SOL    HW2 6933   1.034   3.958   4.185
 1241SOL     OW 6934   0.459   4.876   4.465
 1241SOL    HW1 6935   0.388   4.849   4.530
 1241SOL    HW2 6936   0.433   4.848   4.372
 1242SOL     OW 6937   1.032   4.273   3.740
 1242SOL    HW1 6938   0.991   4.355   3.701
 1242SOL    HW2 6939   1.096   4.299   3.813
 1243SOL     OW 6940   0.866   4.178   4.366
 1243SOL    HW1 6941   0.834   4.250   4.304
 1243SOL    HW2 6942   0.890   4.097   4.313
 1244SOL     OW 6943   1.017   3.763   4.477
 1244SOL    HW1 6944   0.945   3.768   4.408
 1244SOL    HW2 6945   0.993   3.694   4.546
 1245SOL     OW 6946   1.429   4.897   4.591
 1245SOL    HW1 6947   1.374   4.813   4.584
 1245SOL    HW2 6948   1.455   4.926   4.499
 1246SOL     OW 6949   1.466   4.314   4.716
 1246SOL    HW1 6950   1.436   4.219   4.723
 1246SOL    HW2 6951   1.539   4.330   4.782
 1247SOL     OW 6952   1.390   4.299   3.802
 1247SOL    HW1 6953   1.336   4.278   3.883
 1247SOL    HW2 6954   1.481   4.258   3.811
 1248SOL     OW 6955   0.527   3.980   4.052
 1248SOL    HW1 6956   0.554   3.921   3.977
 1248SOL    HW2 6957   0.527   4.075   4.021
 1249SOL     OW 6958   1.638   4.823   4.803
 1249SOL    HW1 6959   1.643   4.904   4.862
 1249SOL    HW2 6960   1.552   4.825   4.752
 1250SOL     OW 6961   0.705   4.774   4.092
 1250SOL    HW1 6962   0.691   4.781   4.191
 1250SOL    HW2 6963   0.789   4.723   4.074
 1251SOL     OW 6964   0.410   4.537   4.975
 1251SOL    HW1 6965   0.496   4.549   5.025
 1251SOL    HW2 6966   0.368   4.450   5.002
 1252SOL     OW 6967   0.367   4.824   4.225
 1252SOL    HW1 6968   0.360   4.907   4.169
 1252SOL    HW2 6969   0.371   4.744   4.165
 1253SOL     OW 6970   0.566   4.261   4.589
 1253SOL    HW1 6971   0.578   4.327   4.515
 1253SOL    HW2 6972   0.612   4.295   4.672
 1254SOL     OW 6973   1.582   4.363   4.196
 1254SOL    HW1 6974   1.551   4.424   4.269
 1254SOL    HW2 6975   1.632   4.415   4.127
 1255SOL     OW 6976   0.573   4.594   4.753
 1255SOL    HW1 6977   0.617   4.683   4.744
 1255SOL    HW2 6978   0.510   4.594   4.830
 1256SOL     OW 6979   1.360   4.586   4.769
 1256SOL    HW1 6980   1.285   4.586   4.703
 1256SOL    HW2 6981   1.397   4.494   4.778
 1257SOL     OW 6982   1.209   4.249   3.999
 1257SOL    HW1 6983   1.222   4.165   4.053
 1257SOL    HW2 6984   1.180   4.323   4.059
 1258SOL     OW 6985   0.307   3.937   4.955
 1258SOL    HW1 6986   0.284   3.974   5.045
 1258SOL    HW2 6987   0.277   3.842   4.949
 1259SOL     OW 6988   0.037   5.034   5.006
 1259SOL    HW1 6989   0.090   4.985   5.074
 1259SOL    HW2 6990   0.059   5.132   5.011
 1260SOL     OW 6991   0.732   4.358   4.788
 1260SOL    HW1 6992   0.791   4.332   4.712
 1260SOL    HW2 6993   0.704   4.454   4.777
 1261SOL     OW 6994   0.307   3.787   4.342
 1261SOL    HW1 6995   0.296   3.881   4.375
 1261SOL    HW2 6996   0.302   3.724   4.419
 1262SOL     OW 6997   1.023   4.490   4.690
 1262SOL    HW1 6998   1.038   4.511   4.786
 1262SOL    HW2 6999   0.993   4.395   4.681
 1263SOL     OW 7000   1.303   4.562   3.766
 1263SOL    HW1 7001   1.337   4.469   3.781
 1263SOL    HW2 7002   1.321   4.589   3.671
 1264SOL     OW 7003   0.319   4.534   4.673
 1264SOL    HW1 7004   0.412   4.570   4.678
 1264SOL    HW2 7005   0.313   4.449   4.725
 1265SOL     OW 7006   0.339   4.233   4.730
 1265SOL    HW1 7007   0.287   4.150   4.713
 1265SOL    HW2 7008   0.416   4.238   4.666
 1266SOL     OW 7009   1.160   3.931   5.201
 1266SOL    HW1 7010   1.160   3.995   5.278
 1266SOL    HW2 7011   1.188   3.979   5.118
 1267SOL     OW 7012   1.002   4.520   4.962
 1267SOL    HW1 7013   1.043   4.488   5.048
 1267SOL    HW2 7014   0.906   4.493   4.959
 1268SOL     OW 7015   0.040   4.268   4.838
 1268SOL    HW1 7016   0.125   4.235   4.797
 1268SOL    HW2 7017   0.053   4.283   4.936
 1269SOL     OW 7018   0.815   4.296   4.049
 1269SOL    HW1 7019   0.822   4.207   4.003
 1269SOL    HW2 7020   0.721   4.330   4.041
 1270SOL     OW 7021   1.657   4.328   4.930
 1270SOL    HW1 7022   1.619   4.259   4.992
 1270SOL    HW2 7023   1.739   4.292   4.886
 1271SOL     OW 7024   0.671   4.188   4.993
 1271SOL    HW1 7025   0.637   4.099   4.963
 1271SOL    HW2 7026   0.697   4.242   4.913
 1272SOL     OW 7027   0.473   4.224   3.915
 1272SOL    HW1 7028   0.534   4.304   3.919
 1272SOL    HW2 7029   0.378   4.255   3.922
 1273SOL     OW 7030   1.347   4.783   4.958
 1273SOL    HW1 7031   1.371   4.720   4.884
 1273SOL    HW2 7032   1.257   4.823   4.940
 1274SOL     OW 7033   1.302   4.579   4.033
 1274SOL    HW1 7034   1.216   4.548   4.075
 1274SOL    HW2 7035   1.298   4.565   3.934
 1275SOL     OW 7036   0.083   4.982   4.746
 1275SOL    HW1 7037   0.078   4.981   4.846
 1275SOL    HW2 7038   0.000   4.941   4.708
 1276SOL     OW 7039   1.280   4.651   4.396
 1276SOL    HW1 7040   1.340   4.570   4.398
 1276SOL    HW2 7041   1.320   4.720   4.336
 1277SOL     OW 7042   1.841   3.899   4.687
 1277SOL    HW1 7043   1.880   3.814   4.651
 1277SOL    HW2 7044   1.743   3.901   4.668
 1278SOL     OW 7045   0.263   4.050   4.444
 1278SOL    HW1 7046   0.184   4.101   4.410
 1278SOL    HW2 7047   0.254   4.035   4.542
 1279SOL     OW 7048   0.822   4.726   5.096
 1279SOL    HW1 7049   0.862   4.725   5.004
 1279SOL    HW2 7050   0.832   4.818   5.136
 1280SOL     OW 7051   0.916   4.634   4.015
 1280SOL    HW1 7052   0.979   4.672   3.947
 1280SOL    HW2 7053   0.956   4.551   4.054
 1281SOL     OW 7054   1.614   5.016   5.013
 1281SOL    HW1 7055   1.674   5.019   5.093
 1281SOL    HW2 7056   1.539   5.080   5.026
 1282SOL     OW 7057   1.039   4.822   4.420
 1282SOL    HW1 7058   0.969   4.775   4.474
 1282SOL    HW2 7059   1.098   4.754   4.377
 1283SOL     OW 7060   1.014   3.960   4.695
 1283SOL    HW1 7061   1.006   3.924   4.602
 1283SOL    HW2 7062   1.012   3.884   4.760
 1284SOL     OW 7063   1.709   4.109   5.105
 1284SOL    HW1 7064   1.782   4.178   5.109
 1284SOL    HW2 7065   1.737   4.034   5.046
 1285SOL     OW 7066   0.075   4.069   3.757
 1285SOL    HW1 7067  -0.017   4.041   3.728
 1285SOL    HW2 7068   0.106   4.146   3.701
 1286SOL     OW 7069   0.072   3.890   4.042
 1286SOL    HW1 7070   0.055   3.973   3.988
 1286SOL    HW2 7071   0.162   3.853   4.020
 1287SOL     OW 7072   1.674   4.607   4.978
 1287SOL    HW1 7073   1.647   4.518   4.941
 1287SOL    HW2 7074   1.675   4.675   4.905
 1288SOL     OW 7075   0.594   4.469   4.376
 1288SOL    HW1 7076   0.644   4.554   4.357
 1288SOL    HW2 7077   0.506   4.471   4.328
 1289SOL     OW 7078   1.730   4.658   5.241
 1289SOL    HW1 7079   1.768   4.749   5.256
 1289SOL    HW2 7080   1.722   4.641   5.142
 1290SOL     OW 7081   0.859   4.680   4.585
 1290SOL    HW1 7082   0.913   4.611   4.633
 1290SOL    HW2 7083   0.827   4.749   4.651
 1291SOL     OW 7084   1.083   4.708   3.811
 1291SOL    HW1 7085   1.060   4.761   3.729
 1291SOL    HW2 7086   1.164   4.652   3.792
 1292SOL     OW 7087   1.824   3.916   4.951
 1292SOL    HW1 7088   1.820   3.826   4.995
 1292SOL    HW2 7089   1.827   3.905   4.852
 1293SOL     OW 7090   0.428   4.148   4.244
 1293SOL    HW1 7091   0.458   4.076   4.182
 1293SOL    HW2 7092   0.389   4.108   4.327
 1294SOL     OW 7093   1.424   3.938   4.836
 1294SOL    HW1 7094   1.476   3.873   4.891
 1294SOL    HW2 7095   1.375   4.001   4.897
 1295SOL     OW 7096   1.001   3.758   4.878
 1295SOL    HW1 7097   0.938   3.686   4.847
 1295SOL    HW2 7098   1.094   3.722   4.878
 1296SOL     OW 7099   0.770   5.054   4.025
 1296SOL    HW1 7100   0.724   4.967   4.042
 1296SOL    HW2 7101   0.861   5.051   4.066
 1297SOL     OW 7102   1.300   4.177   4.415
 1297SOL    HW1 7103   1.241   4.257   4.419
 1297SOL    HW2 7104   1.315   4.142   4.508
 1298SOL     OW 7105   1.593   3.945   4.606
 1298SOL    HW1 7106   1.509   3.944   4.660
 1298SOL    HW2 7107   1.595   4.028   4.550
 1299SOL     OW 7108   2.092   0.628   0.113
 1299SOL    HW1 7109   1.999   0.626   0.150
 1299SOL    HW2 7110   2.093   0.589   0.021
 1300SOL     OW 7111   2.087   0.275   0.996
 1300SOL    HW1 7112   2.122   0.258   1.088
 1300SOL    HW2 7113   1.999   0.230   0.984
 1301SOL     OW 7114   1.881   0.368   0.647
 1301SOL    HW1 7115   1.799   0.411   0.686
 1301SOL    HW2 7116   1.853   0.295   0.584
 1302SOL     OW 7117   3.417   1.511   0.703
 1302SOL    HW1 7118   3.360   1.495   0.784
 1302SOL    HW2 7119   3.358   1.521   0.623
 1303SOL     OW 7120   2.997   0.703   0.717
 1303SOL    HW1 7121   3.054   0.781   0.692
 1303SOL    HW2 7122   2.937   0.729   0.793
 1304SOL     OW 7123   3.617   0.607   0.231
 1304SOL    HW1 7124   3.605   0.594   0.132
 1304SOL    HW2 7125   3.587   0.526   0.280
 1305SOL     OW 7126   2.630   1.144   1.023
 1305SOL    HW1 7127   2.552   1.161   1.083
 1305SOL    HW2 7128   2.664   1.231   0.987
 1306SOL     OW 7129   2.712   0.798   1.823
 1306SOL    HW1 7130   2.708   0.874   1.888
 1306SOL    HW2 7131   2.734   0.834   1.732
 1307SOL     OW 7132   2.547   1.012   0.665
 1307SOL    HW1 7133   2.616   0.996   0.735
 1307SOL    HW2 7134   2.474   1.069   0.703
 1308SOL     OW 7135   3.465   0.447   0.737
 1308SOL    HW1 7136   3.391   0.493   0.687
 1308SOL    HW2 7137   3.516   0.515   0.790
 1309SOL     OW 7138   2.093   1.713   0.483
 1309SOL    HW1 7139   2.127   1.790   0.537
 1309SOL    HW2 7140   2.137   1.713   0.393
 1310SOL     OW 7141   2.102   1.091   0.886
 1310SOL    HW1 7142   2.116   1.007   0.938
 1310SOL    HW2 7143   2.047   1.155   0.941
 1311SOL     OW 7144   2.468   0.964   0.123
 1311SOL    HW1 7145   2.475   1.048   0.069
 1311SOL    HW2 7146   2.514   0.977   0.211
 1312SOL     OW 7147   3.456   0.114   1.480
 1312SOL    HW1 7148   3.438   0.181   1.408
 1312SOL    HW2 7149   3.453   0.160   1.569
 1313SOL     OW 7150   1.984   0.643   0.563
 1313SOL    HW1 7151   1.939   0.555   0.580
 1313SOL    HW2 7152   1.983   0.697   0.647
 1314SOL     OW 7153   3.704   1.767   0.359
 1314SOL    HW1 7154   3.758   1.738   0.439
 1314SOL    HW2 7155   3.734   1.857   0.330
 1315SOL     OW 7156   1.889   1.596   0.117
 1315SOL    HW1 7157   1.870   1.500   0.138
 1315SOL    HW2 7158   1.856   1.654   0.192
 1316SOL     OW 7159   3.551   0.922   0.612
 1316SOL    HW1 7160   3.646   0.893   0.620
 1316SOL    HW2 7161   3.543   0.987   0.537
 1317SOL     OW 7162   3.503   1.108   0.432
 1317SOL    HW1 7163   3.589   1.110   0.380
 1317SOL    HW2 7164   3.517   1.155   0.520
 1318SOL     OW 7165   1.975   0.737   1.597
 1318SOL    HW1 7166   2.063   0.724   1.642
 1318SOL    HW2 7167   1.962   0.834   1.575
 1319SOL     OW 7168   2.671   0.004   0.502
 1319SOL    HW1 7169   2.711   0.095   0.493
 1319SOL    HW2 7170   2.571   0.012   0.508
 1320SOL     OW 7171   2.059   0.976   1.264
 1320SOL    HW1 7172   2.148   0.931   1.250
 1320SOL    HW2 7173   1.986   0.911   1.245
 1321SOL     OW 7174   3.387   0.999   0.190
 1321SOL    HW1 7175   3.324   0.923   0.203
 1321SOL    HW2 7176   3.435   1.017   0.276
 1322SOL     OW 7177   2.179   0.251   1.801
 1322SOL    HW1 7178   2.250   0.322   1.807
 1322SOL    HW2 7179   2.091   0.290   1.829
 1323SOL     OW 7180   3.328   1.417   0.953
 1323SOL    HW1 7181   3.269   1.423   1.033
 1323SOL    HW2 7182   3.313   1.329   0.907
 1324SOL     OW 7183   3.529   1.714   0.572
 1324SOL    HW1 7184   3.488   1.691   0.484
 1324SOL    HW2 7185   3.511   1.640   0.637
 1325SOL     OW 7186   2.460   0.729   0.270
 1325SOL    HW1 7187   2.484   0.798   0.202
 1325SOL    HW2 7188   2.382   0.762   0.324
 1326SOL     OW 7189   3.143   0.345   0.944
 1326SOL    HW1 7190   3.057   0.295   0.931
 1326SOL    HW2 7191   3.205   0.291   1.000
 1327SOL     OW 7192   3.438   1.662   0.307
 1327SOL    HW1 7193   3.527   1.708   0.310
 1327SOL    HW2 7194   3.417   1.638   0.212
 1328SOL     OW 7195   2.669   0.605   1.465
 1328SOL    HW1 7196   2.622   0.602   1.554
 1328SOL    HW2 7197   2.618   0.550   1.399
 1329SOL     OW 7198   3.256   0.469   1.674
 1329SOL    HW1 7199   3.236   0.512   1.762
 1329SOL    HW2 7200   3.334   0.407   1.683
 1330SOL     OW 7201   2.835   0.890   1.572
 1330SOL    HW1 7202   2.881   0.806   1.543
 1330SOL    HW2 7203   2.779   0.924   1.497
 1331SOL     OW 7204   2.853   0.410   1.242
 1331SOL    HW1 7205   2.776   0.444   1.296
 1331SOL    HW2 7206   2.819   0.359   1.163
 1332SOL     OW 7207   2.903   0.701   0.429
 1332SOL    HW1 7208   2.929   0.697   0.525
 1332SOL    HW2 7209   2.818   0.650   0.415
 1333SOL     OW 7210   1.938   0.811   0.789
 1333SOL    HW1 7211   2.037   0.799   0.798
 1333SOL    HW2 7212   1.914   0.906   0.810
 1334SOL     OW 7213   2.727   0.348   0.195
 1334SOL    HW1 7214   2.786   0.411   0.146
 1334SOL    HW2 7215   2.746   0.254   0.166
 1335SOL     OW 7216   3.224   1.144   0.545
 1335SOL    HW1 7217   3.307   1.115   0.497
 1335SOL    HW2 7218   3.175   1.211   0.489
 1336SOL     OW 7219   2.412   0.196   0.885
 1336SOL    HW1 7220   2.407   0.191   0.985
 1336SOL    HW2 7221   2.414   0.292   0.856
 1337SOL     OW 7222   2.870   1.456   0.477
 1337SOL    HW1 7223   2.824   1.528   0.425
 1337SOL    HW2 7224   2.866   1.476   0.575
 1338SOL     OW 7225   2.213   1.801   0.853
 1338SOL    HW1 7226   2.263   1.715   0.859
 1338SOL    HW2 7227   2.278   1.878   0.850
 1339SOL     OW 7228   3.657   1.066   0.873
 1339SOL    HW1 7229   3.595   1.051   0.797
 1339SOL    HW2 7230   3.605   1.077   0.958
 1340SOL     OW 7231   2.183   0.943   0.242
 1340SOL    HW1 7232   2.265   0.982   0.200
 1340SOL    HW2 7233   2.156   0.861   0.193
 1341SOL     OW 7234   3.320   0.735   0.728
 1341SOL    HW1 7235   3.315   0.670   0.803
 1341SOL    HW2 7236   3.400   0.794   0.741
 1342SOL     OW 7237   2.973   1.776   0.237
 1342SOL    HW1 7238   2.913   1.714   0.287
 1342SOL    HW2 7239   3.004   1.732   0.152
 1343SOL     OW 7240   2.064   0.285   1.498
 1343SOL    HW1 7241   1.984   0.345   1.485
 1343SOL    HW2 7242   2.054   0.236   1.584
 1344SOL     OW 7243   3.494   1.377   0.081
 1344SOL    HW1 7244   3.462   1.471   0.071
 1344SOL    HW2 7245   3.418   1.314   0.069
 1345SOL     OW 7246   2.326   1.743   0.323
 1345SOL    HW1 7247   2.359   1.782   0.409
 1345SOL    HW2 7248   2.402   1.736   0.258
 1346SOL     OW 7249   3.262   0.107   0.426
 1346SOL    HW1 7250   3.238   0.070   0.336
 1346SOL    HW2 7251   3.361   0.123   0.430
 1347SOL     OW 7252   2.802   1.698   0.904
 1347SOL    HW1 7253   2.882   1.641   0.925
 1347SOL    HW2 7254   2.753   1.658   0.827
 1348SOL     OW 7255   2.244   0.700   0.480
 1348SOL    HW1 7256   2.289   0.610   0.477
 1348SOL    HW2 7257   2.150   0.689   0.513
 1349SOL     OW 7258   3.409   0.222   1.729
 1349SOL    HW1 7259   3.404   0.259   1.821
 1349SOL    HW2 7260   3.337   0.153   1.717
 1350SOL     OW 7261   2.476   0.122   0.117
 1350SOL    HW1 7262   2.574   0.100   0.124
 1350SOL    HW2 7263   2.445   0.105   0.024
 1351SOL     OW 7264   2.643   0.264   1.749
 1351SOL    HW1 7265   2.710   0.203   1.792
 1351SOL    HW2 7266   2.570   0.283   1.814
 1352SOL     OW 7267   3.213   0.590   1.433
 1352SOL    HW1 7268   3.241   0.547   1.518
 1352SOL    HW2 7269   3.238   0.686   1.434
 1353SOL     OW 7270   2.784   0.503   0.899
 1353SOL    HW1 7271   2.759   0.494   0.803
 1353SOL    HW2 7272   2.832   0.421   0.930
 1354SOL     OW 7273   2.401   0.064   0.512
 1354SOL    HW1 7274   2.320   0.065   0.570
 1354SOL    HW2 7275   2.404   0.147   0.457
 1355SOL     OW 7276   3.296   1.188   0.041
 1355SOL    HW1 7277   3.328   1.112   0.098
 1355SOL    HW2 7278   3.204   1.215   0.071
 1356SOL     OW 7279   2.159   0.035   0.171
 1356SOL    HW1 7280   2.208   0.119   0.150
 1356SOL    HW2 7281   2.221  -0.030   0.216
 1357SOL     OW 7282   2.797   0.236   0.480
 1357SOL    HW1 7283   2.749   0.277   0.402
 1357SOL    HW2 7284   2.896   0.234   0.461
 1358SOL     OW 7285   2.938   0.683   1.464
 1358SOL    HW1 7286   2.858   0.622   1.467
 1358SOL    HW2 7287   3.019   0.630   1.440
 1359SOL     OW 7288   3.089   1.570   0.793
 1359SOL    HW1 7289   3.110   1.644   0.728
 1359SOL    HW2 7290   3.157   1.570   0.866
 1360SOL     OW 7291   2.321   1.152   0.741
 1360SOL    HW1 7292   2.250   1.125   0.806
 1360SOL    HW2 7293   2.295   1.124   0.648
 1361SOL     OW 7294   3.133   1.797   0.591
 1361SOL    HW1 7295   3.177   1.861   0.527
 1361SOL    HW2 7296   3.083   1.849   0.661
 1362SOL     OW 7297   2.894   0.549   0.016
 1362SOL    HW1 7298   2.853   0.631  -0.023
 1362SOL    HW2 7299   2.958   0.575   0.089
 1363SOL     OW 7300   1.940   0.556   1.386
 1363SOL    HW1 7301   2.032   0.555   1.345
 1363SOL    HW2 7302   1.934   0.630   1.453
 1364SOL     OW 7303   2.423   0.222   1.147
 1364SOL    HW1 7304   2.461   0.138   1.184
 1364SOL    HW2 7305   2.335   0.241   1.191
 1365SOL     OW 7306   2.728   0.454   0.642
 1365SOL    HW1 7307   2.696   0.526   0.580
 1365SOL    HW2 7308   2.752   0.373   0.589
 1366SOL     OW 7309   2.879   0.039   0.753
 1366SOL    HW1 7310   2.807   0.044   0.684
 1366SOL    HW2 7311   2.855  -0.030   0.822
 1367SOL     OW 7312   3.291   1.173   0.867
 1367SOL    HW1 7313   3.236   1.089   0.860
 1367SOL    HW2 7314   3.317   1.202   0.775
 1368SOL     OW 7315   3.328   0.590   0.992
 1368SOL    HW1 7316   3.298   0.495   0.999
 1368SOL    HW2 7317   3.401   0.606   1.058
 1369SOL     OW 7318   3.719   0.833   0.377
 1369SOL    HW1 7319   3.761   0.769   0.441
 1369SOL    HW2 7320   3.681   0.782   0.299
 1370SOL     OW 7321   2.350   1.385   0.174
 1370SOL    HW1 7322   2.263   1.370   0.221
 1370SOL    HW2 7323   2.333   1.411   0.079
 1371SOL     OW 7324   3.526   1.280   0.657
 1371SOL    HW1 7325   3.625   1.288   0.671
 1371SOL    HW2 7326   3.481   1.364   0.688
 1372SOL     OW 7327   3.252   0.575   0.078
 1372SOL    HW1 7328   3.198   0.554   0.159
 1372SOL    HW2 7329   3.343   0.534   0.087
 1373SOL     OW 7330   2.389   0.256   0.328
 1373SOL    HW1 7331   2.416   0.197   0.253
 1373SOL    HW2 7332   2.389   0.351   0.297
 1374SOL     OW 7333   2.973   1.195   1.100
 1374SOL    HW1 7334   2.933   1.239   1.181
 1374SOL    HW2 7335   2.932   1.232   1.017
 1375SOL     OW 7336   3.500   1.099   1.079
 1375SOL    HW1 7337   3.505   1.180   1.138
 1375SOL    HW2 7338   3.414   1.101   1.028
 1376SOL     OW 7339   2.777   0.089   1.402
 1376SOL    HW1 7340   2.802   0.069   1.307
 1376SOL    HW2 7341   2.849   0.145   1.444
 1377SOL     OW 7342   2.567   1.050   0.368
 1377SOL    HW1 7343   2.553   1.057   0.467
 1377SOL    HW2 7344   2.651   0.999   0.350
 1378SOL     OW 7345   2.272   0.813   1.251
 1378SOL    HW1 7346   2.358   0.825   1.301
 1378SOL    HW2 7347   2.230   0.726   1.278
 1379SOL     OW 7348   3.136   0.386   1.262
 1379SOL    HW1 7349   3.157   0.460   1.326
 1379SOL    HW2 7350   3.047   0.403   1.219
 1380SOL     OW 7351   3.114   1.348   0.388
 1380SOL    HW1 7352   3.164   1.425   0.428
 1380SOL    HW2 7353   3.019   1.350   0.420
 1381SOL     OW 7354   3.134   1.445   1.142
 1381SOL    HW1 7355   3.181   1.458   1.229
 1381SOL    HW2 7356   3.068   1.371   1.151
 1382SOL     OW 7357   3.444   0.639   0.472
 1382SOL    HW1 7358   3.413   0.700   0.545
 1382SOL    HW2 7359   3.494   0.691   0.403
 1383SOL     OW 7360   2.264   0.751   1.598
 1383SOL    HW1 7361   2.332   0.806   1.551
 1383SOL    HW2 7362   2.304   0.663   1.625
 1384SOL     OW 7363   3.449   0.779   1.670
 1384SOL    HW1 7364   3.357   0.817   1.665
 1384SOL    HW2 7365   3.509   0.826   1.605
 1385SOL     OW 7366   2.875   0.105   1.770
 1385SOL    HW1 7367   2.881   0.190   1.718
 1385SOL    HW2 7368   2.907   0.029   1.713
 1386SOL     OW 7369   2.366   0.050   1.740
 1386SOL    HW1 7370   2.324  -0.007   1.670
 1386SOL    HW2 7371   2.300   0.119   1.772
 1387SOL     OW 7372   2.435   0.870   1.029
 1387SOL    HW1 7373   2.479   0.959   1.020
 1387SOL    HW2 7374   2.372   0.870   1.106
 1388SOL     OW 7375   3.222   0.862   1.045
 1388SOL    HW1 7376   3.147   0.862   0.979
 1388SOL    HW2 7377   3.259   0.770   1.054
 1389SOL     OW 7378   3.071   0.525   0.275
 1389SOL    HW1 7379   3.084   0.441   0.329
 1389SOL    HW2 7380   3.042   0.599   0.335
 1390SOL     OW 7381   2.169   0.213   1.231
 1390SOL    HW1 7382   2.146   0.250   1.321
 1390SOL    HW2 7383   2.139   0.118   1.225
 1391SOL     OW 7384   1.899   1.310   1.282
 1391SOL    HW1 7385   1.952   1.261   1.350
 1391SOL    HW2 7386   1.921   1.408   1.287
 1392SOL     OW 7387   2.594   0.634   1.064
 1392SOL    HW1 7388   2.653   0.608   0.988
 1392SOL    HW2 7389   2.566   0.730   1.053
 1393SOL     OW 7390   2.169   0.063   0.618
 1393SOL    HW1 7391   2.158   0.157   0.651
 1393SOL    HW2 7392   2.164   0.000   0.695
 1394SOL     OW 7393   3.484   0.367   0.374
 1394SOL    HW1 7394   3.486   0.291   0.438
 1394SOL    HW2 7395   3.436   0.444   0.414
 1395SOL     OW 7396   2.885   0.766   0.966
 1395SOL    HW1 7397   2.900   0.787   1.062
 1395SOL    HW2 7398   2.855   0.671   0.957
 1396SOL     OW 7399   3.721   1.518   1.605
 1396SOL    HW1 7400   3.735   1.545   1.510
 1396SOL    HW2 7401   3.804   1.540   1.658
 1397SOL     OW 7402   3.402   0.274   0.125
 1397SOL    HW1 7403   3.341   0.199   0.148
 1397SOL    HW2 7404   3.424   0.326   0.208
 1398SOL     OW 7405   3.165   0.838   0.042
 1398SOL    HW1 7406   3.199   0.745   0.057
 1398SOL    HW2 7407   3.183   0.865  -0.053
 1399SOL     OW 7408   2.930   1.333   0.849
 1399SOL    HW1 7409   2.937   1.249   0.794
 1399SOL    HW2 7410   2.992   1.402   0.813
 1400SOL     OW 7411   2.181   0.810   0.949
 1400SOL    HW1 7412   2.274   0.846   0.954
 1400SOL    HW2 7413   2.175   0.725   1.001
 1401SOL     OW 7414   3.000   0.380   1.678
 1401SOL    HW1 7415   2.955   0.443   1.742
 1401SOL    HW2 7416   3.093   0.411   1.661
 1402SOL     OW 7417   3.022   0.207   1.477
 1402SOL    HW1 7418   3.022   0.271   1.554
 1402SOL    HW2 7419   3.050   0.255   1.394
 1403SOL     OW 7420   1.870   1.326   0.200
 1403SOL    HW1 7421   1.777   1.347   0.169
 1403SOL    HW2 7422   1.880   1.227   0.213
 1404SOL     OW 7423   1.950   1.801   0.927
 1404SOL    HW1 7424   1.908   1.715   0.900
 1404SOL    HW2 7425   2.044   1.804   0.893
 1405SOL     OW 7426   2.864   0.796   1.238
 1405SOL    HW1 7427   2.905   0.764   1.324
 1405SOL    HW2 7428   2.768   0.769   1.235
 1406SOL     OW 7429   2.051   0.520   1.722
 1406SOL    HW1 7430   2.110   0.480   1.652
 1406SOL    HW2 7431   1.993   0.591   1.681
 1407SOL     OW 7432   3.231   0.950   1.660
 1407SOL    HW1 7433   3.270   1.039   1.680
 1407SOL    HW2 7434   3.241   0.930   1.563
 1408SOL     OW 7435   2.677   0.572   0.325
 1408SOL    HW1 7436   2.684   0.483   0.279
 1408SOL    HW2 7437   2.583   0.606   0.317
 1409SOL     OW 7438   3.519   0.604   1.206
 1409SOL    HW1 7439   3.481   0.535   1.268
 1409SOL    HW2 7440   3.601   0.568   1.162
 1410SOL     OW 7441   2.533   0.464   1.269
 1410SOL    HW1 7442   2.499   0.375   1.239
 1410SOL    HW2 7443   2.559   0.518   1.189
 1411SOL     OW 7444   2.335   0.500   0.191
 1411SOL    HW1 7445   2.396   0.580   0.195
 1411SOL    HW2 7446   2.240   0.531   0.198
 1412SOL     OW 7447   2.021   1.137   1.466
 1412SOL    HW1 7448   2.043   1.076   1.542
 1412SOL    HW2 7449   2.031   1.088   1.380
 1413SOL     OW 7450   3.209   1.059   1.234
 1413SOL    HW1 7451   3.233   0.996   1.160
 1413SOL    HW2 7452   3.119   1.099   1.216
 1414SOL     OW 7453   3.164   0.855   0.309
 1414SOL    HW1 7454   3.078   0.824   0.351
 1414SOL    HW2 7455   3.160   0.841   0.210
 1415SOL     OW 7456   3.621   1.747   1.154
 1415SOL    HW1 7457   3.682   1.777   1.081
 1415SOL    HW2 7458   3.583   1.658   1.132
 1416SOL     OW 7459   1.945   1.258   1.022
 1416SOL    HW1 7460   1.940   1.257   1.122
 1416SOL    HW2 7461   1.862   1.217   0.984
 1417SOL     OW 7462   2.765   0.086   0.133
 1417SOL    HW1 7463   2.816   0.087   0.047
 1417SOL    HW2 7464   2.821   0.044   0.204
 1418SOL     OW 7465   3.588   0.135   0.523
 1418SOL    HW1 7466   3.661   0.118   0.456
 1418SOL    HW2 7467   3.557   0.048   0.561
 1419SOL     OW 7468   3.250   1.573   0.477
 1419SOL    HW1 7469   3.317   1.585   0.403
 1419SOL    HW2 7470   3.210   1.662   0.500
 1420SOL     OW 7471   3.142   0.927   0.672
 1420SOL    HW1 7472   3.202   0.846   0.674
 1420SOL    HW2 7473   3.182   0.996   0.612
 1421SOL     OW 7474   2.534   1.616   0.154
 1421SOL    HW1 7475   2.543   1.626   0.055
 1421SOL    HW2 7476   2.494   1.527   0.175
 1422SOL     OW 7477   3.512   1.720   1.394
 1422SOL    HW1 7478   3.565   1.730   1.310
 1422SOL    HW2 7479   3.485   1.810   1.428
 1423SOL     OW 7480   3.703   0.175   0.963
 1423SOL    HW1 7481   3.742   0.090   0.927
 1423SOL    HW2 7482   3.605   0.177   0.944
 1424SOL     OW 7483   2.125   0.326   0.720
 1424SOL    HW1 7484   2.046   0.377   0.686
 1424SOL    HW2 7485   2.116   0.311   0.818
 1425SOL     OW 7486   3.056   1.612   0.031
 1425SOL    HW1 7487   3.062   1.519   0.068
 1425SOL    HW2 7488   2.997   1.612  -0.049
 1426SOL     OW 7489   2.778   0.910   0.291
 1426SOL    HW1 7490   2.841   0.948   0.223
 1426SOL    HW2 7491   2.818   0.827   0.330
 1427SOL     OW 7492   3.366   1.607   0.044
 1427SOL    HW1 7493   3.274   1.644   0.051
 1427SOL    HW2 7494   3.404   1.627  -0.046
 1428SOL     OW 7495   2.901   1.098   0.696
 1428SOL    HW1 7496   2.831   1.051   0.750
 1428SOL    HW2 7497   2.960   1.030   0.653
 1429SOL     OW 7498   2.876   0.236   0.971
 1429SOL    HW1 7499   2.868   0.200   0.878
 1429SOL    HW2 7500   2.874   0.160   1.036
 1430SOL     OW 7501   2.452   1.487   0.491
 1430SOL    HW1 7502   2.494   1.429   0.421
 1430SOL    HW2 7503   2.408   1.566   0.447
 1431SOL     OW 7504   3.571   0.385   1.381
 1431SOL    HW1 7505   3.644   0.454   1.385
 1431SOL    HW2 7506   3.599   0.310   1.322
 1432SOL     OW 7507   2.117   1.348   0.290
 1432SOL    HW1 7508   2.021   1.349   0.263
 1432SOL    HW2 7509   2.129   1.401   0.374
 1433SOL     OW 7510   1.967   1.013   1.726
 1433SOL    HW1 7511   1.890   0.980   1.780
 1433SOL    HW2 7512   2.052   0.983   1.768
 1434SOL     OW 7513   3.302   0.856   1.398
 1434SOL    HW1 7514   3.245   0.908   1.335
 1434SOL    HW2 7515   3.398   0.868   1.374
 1435SOL     OW 7516   1.934   0.166   0.318
 1435SOL    HW1 7517   1.917   0.249   0.264
 1435SOL    HW2 7518   2.024   0.129   0.296
 1436SOL     OW 7519   3.045   1.335   0.119
 1436SOL    HW1 7520   2.946   1.324   0.121
 1436SOL    HW2 7521   3.079   1.350   0.212
 1437SOL     OW 7522   3.355   1.767   0.959
 1437SOL    HW1 7523   3.388   1.831   0.890
 1437SOL    HW2 7524   3.421   1.761   1.034
 1438SOL     OW 7525   2.578   0.565   1.708
 1438SOL    HW1 7526   2.597   0.630   1.782
 1438SOL    HW2 7527   2.638   0.485   1.717
 1439SOL     OW 7528   3.536   0.883   1.254
 1439SOL    HW1 7529   3.509   0.794   1.217
 1439SOL    HW2 7530   3.537   0.951   1.181
 1440SOL     OW 7531   3.087   0.325   0.449
 1440SOL    HW1 7532   3.152   0.251   0.438
 1440SOL    HW2 7533   3.107   0.375   0.533
 1441SOL     OW 7534   2.456   0.745   0.652
 1441SOL    HW1 7535   2.506   0.830   0.633
 1441SOL    HW2 7536   2.368   0.747   0.604
 1442SOL     OW 7537   3.639   0.342   1.642
 1442SOL    HW1 7538   3.622   0.373   1.548
 1442SOL    HW2 7539   3.555   0.305   1.680
 1443SOL     OW 7540   3.592   0.934   1.517
 1443SOL    HW1 7541   3.630   1.025   1.532
 1443SOL    HW2 7542   3.584   0.917   1.418
 1444SOL     OW 7543   2.721   1.374   0.016
 1444SOL    HW1 7544   2.675   1.389   0.104
 1444SOL    HW2 7545   2.765   1.459  -0.014
 1445SOL     OW 7546   2.523   1.790   0.953
 1445SOL    HW1 7547   2.477   1.878   0.940
 1445SOL    HW2 7548   2.622   1.802   0.946
 1446SOL     OW 7549   2.721   0.956   0.861
 1446SOL    HW1 7550   2.775   0.887   0.909
 1446SOL    HW2 7551   2.689   1.025   0.927
 1447SOL     OW 7552   2.945   0.984   0.087
 1447SOL    HW1 7553   2.922   1.037   0.005
 1447SOL    HW2 7554   3.026   0.928   0.068
 1448SOL     OW 7555   3.723   1.569   0.851
 1448SOL    HW1 7556   3.652   1.557   0.781
 1448SOL    HW2 7557   3.724   1.490   0.911
 1449SOL     OW 7558   3.686   0.192   1.227
 1449SOL    HW1 7559   3.682   0.102   1.271
 1449SOL    HW2 7560   3.689   0.181   1.128
 1450SOL     OW 7561   2.290   0.424   0.520
 1450SOL    HW1 7562   2.320   0.352   0.458
 1450SOL    HW2 7563   2.251   0.384   0.603
 1451SOL     OW 7564   3.567   1.487   1.104
 1451SOL    HW1 7565   3.474   1.462   1.077
 1451SOL    HW2 7566   3.593   1.437   1.186
 1452SOL     OW 7567   2.674   1.586   0.687
 1452SOL    HW1 7568   2.706   1.596   0.593
 1452SOL    HW2 7569   2.595   1.524   0.689
 1453SOL     OW 7570   3.286   0.214   1.112
 1453SOL    HW1 7571   3.338   0.149   1.167
 1453SOL    HW2 7572   3.237   0.277   1.173
 1454SOL     OW 7573   2.863   0.034   1.154
 1454SOL    HW1 7574   2.800  -0.038   1.123
 1454SOL    HW2 7575   2.956  -0.002   1.154
 1455SOL     OW 7576   2.632   1.330   0.301
 1455SOL    HW1 7577   2.586   1.243   0.318
 1455SOL    HW2 7578   2.723   1.327   0.342
 1456SOL     OW 7579   3.214   0.052   0.168
 1456SOL    HW1 7580   3.249   0.011   0.084
 1456SOL    HW2 7581   3.124   0.014   0.188
 1457SOL     OW 7582   3.162   0.453   0.691
 1457SOL    HW1 7583   3.103   0.533   0.695
 1457SOL    HW2 7584   3.177   0.418   0.784
 1458SOL     OW 7585   3.455   0.221   0.882
 1458SOL    HW1 7586   3.371   0.220   0.936
 1458SOL    HW2 7587   3.457   0.304   0.826
 1459SOL     OW 7588   2.737   1.646   0.337
 1459SOL    HW1 7589   2.660   1.611   0.283
 1459SOL    HW2 7590   2.705   1.717   0.399
 1460SOL     OW 7591   2.092   0.628   1.975
 1460SOL    HW1 7592   1.999   0.626   2.012
 1460SOL    HW2 7593   2.093   0.589   1.883
 1461SOL     OW 7594   2.087   0.275   2.858
 1461SOL    HW1 7595   2.122   0.258   2.950
 1461SOL    HW2 7596   1.999   0.230   2.846
 1462SOL     OW 7597   1.881   0.368   2.509
 1462SOL    HW1 7598   1.799   0.411   2.548
 1462SOL    HW2 7599   1.853   0.295   2.446
 1463SOL     OW 7600   2.712   0.798   3.685
 1463SOL    HW1 7601   2.708   0.874   3.750
 1463SOL    HW2 7602   2.734   0.834   3.594
 1464SOL     OW 7603   2.300   0.392   3.361
 1464SOL    HW1 7604   2.382   0.336   3.370
 1464SOL    HW2 7605   2.219   0.334   3.365
 1465SOL     OW 7606   3.456   0.114   3.342
 1465SOL    HW1 7607   3.438   0.181   3.270
 1465SOL    HW2 7608   3.453   0.160   3.431
 1466SOL     OW 7609   1.984   0.643   2.425
 1466SOL    HW1 7610   1.939   0.555   2.442
 1466SOL    HW2 7611   1.983   0.697   2.509
 1467SOL     OW 7612   1.975   0.737   3.459
 1467SOL    HW1 7613   2.063   0.724   3.504
 1467SOL    HW2 7614   1.962   0.834   3.437
 1468SOL     OW 7615   2.671   0.004   2.364
 1468SOL    HW1 7616   2.711   0.095   2.355
 1468SOL    HW2 7617   2.571   0.012   2.370
 1469SOL     OW 7618   2.059   0.976   3.126
 1469SOL    HW1 7619   2.148   0.931   3.112
 1469SOL    HW2 7620   1.986   0.911   3.107
 1470SOL     OW 7621   3.387   0.999   2.052
 1470SOL    HW1 7622   3.324   0.923   2.065
 1470SOL    HW2 7623   3.435   1.017   2.138
 1471SOL     OW 7624   2.669   0.605   3.327
 1471SOL    HW1 7625   2.622   0.602   3.416
 1471SOL    HW2 7626   2.618   0.550   3.261
 1472SOL     OW 7627   3.256   0.469   3.536
 1472SOL    HW1 7628   3.236   0.512   3.624
 1472SOL    HW2 7629   3.334   0.407   3.545
 1473SOL     OW 7630   2.853   0.410   3.104
 1473SOL    HW1 7631   2.776   0.444   3.158
 1473SOL    HW2 7632   2.819   0.359   3.025
 1474SOL     OW 7633   1.938   0.811   2.651
 1474SOL    HW1 7634   2.037   0.799   2.660
 1474SOL    HW2 7635   1.914   0.906   2.672
 1475SOL     OW 7636   2.727   0.348   2.057
 1475SOL    HW1 7637   2.786   0.411   2.008
 1475SOL    HW2 7638   2.746   0.254   2.028
 1476SOL     OW 7639   3.581   0.585   3.693
 1476SOL    HW1 7640   3.555   0.674   3.657
 1476SOL    HW2 7641   3.579   0.517   3.620
 1477SOL     OW 7642   2.412   0.196   2.747
 1477SOL    HW1 7643   2.407   0.191   2.847
 1477SOL    HW2 7644   2.414   0.292   2.718
 1478SOL     OW 7645   3.262   0.107   2.288
 1478SOL    HW1 7646   3.238   0.070   2.198
 1478SOL    HW2 7647   3.361   0.123   2.292
 1479SOL     OW 7648   2.244   0.700   2.342
 1479SOL    HW1 7649   2.289   0.610   2.339
 1479SOL    HW2 7650   2.150   0.689   2.375
 1480SOL     OW 7651   3.409   0.222   3.591
 1480SOL    HW1 7652   3.404   0.259   3.683
 1480SOL    HW2 7653   3.337   0.153   3.579
 1481SOL     OW 7654   2.476   0.122   1.979
 1481SOL    HW1 7655   2.574   0.100   1.986
 1481SOL    HW2 7656   2.445   0.105   1.886
 1482SOL     OW 7657   2.643   0.264   3.611
 1482SOL    HW1 7658   2.710   0.203   3.654
 1482SOL    HW2 7659   2.570   0.283   3.676
 1483SOL     OW 7660   3.213   0.590   3.295
 1483SOL    HW1 7661   3.241   0.547   3.380
 1483SOL    HW2 7662   3.238   0.686   3.296
 1484SOL     OW 7663   2.784   0.503   2.761
 1484SOL    HW1 7664   2.759   0.494   2.665
 1484SOL    HW2 7665   2.832   0.421   2.792
 1485SOL     OW 7666   2.401   0.064   2.374
 1485SOL    HW1 7667   2.320   0.065   2.432
 1485SOL    HW2 7668   2.404   0.147   2.319
 1486SOL     OW 7669   2.159   0.035   2.033
 1486SOL    HW1 7670   2.208   0.119   2.012
 1486SOL    HW2 7671   2.221  -0.030   2.078
 1487SOL     OW 7672   2.797   0.236   2.342
 1487SOL    HW1 7673   2.749   0.277   2.264
 1487SOL    HW2 7674   2.896   0.234   2.323
 1488SOL     OW 7675   2.938   0.683   3.326
 1488SOL    HW1 7676   2.858   0.622   3.329
 1488SOL    HW2 7677   3.019   0.630   3.302
 1489SOL     OW 7678   3.089   1.570   2.655
 1489SOL    HW1 7679   3.110   1.644   2.590
 1489SOL    HW2 7680   3.157   1.570   2.728
 1490SOL     OW 7681   2.894   0.549   1.878
 1490SOL    HW1 7682   2.853   0.631   1.839
 1490SOL    HW2 7683   2.958   0.575   1.951
 1491SOL     OW 7684   1.940   0.556   3.248
 1491SOL    HW1 7685   2.032   0.555   3.207
 1491SOL    HW2 7686   1.934   0.630   3.315
 1492SOL     OW 7687   2.423   0.222   3.009
 1492SOL    HW1 7688   2.461   0.138   3.046
 1492SOL    HW2 7689   2.335   0.241   3.053
 1493SOL     OW 7690   2.728   0.454   2.504
 1493SOL    HW1 7691   2.696   0.526   2.442
 1493SOL    HW2 7692   2.752   0.373   2.451
 1494SOL     OW 7693   2.879   0.039   2.615
 1494SOL    HW1 7694   2.807   0.044   2.546
 1494SOL    HW2 7695   2.855  -0.030   2.684
 1495SOL     OW 7696   3.328   0.590   2.854
 1495SOL    HW1 7697   3.298   0.495   2.861
 1495SOL    HW2 7698   3.401   0.606   2.920
 1496SOL     OW 7699   2.389   0.256   2.190
 1496SOL    HW1 7700   2.416   0.197   2.115
 1496SOL    HW2 7701   2.389   0.351   2.159
 1497SOL     OW 7702   3.616   1.223   3.450
 1497SOL    HW1 7703   3.707   1.184   3.437
 1497SOL    HW2 7704   3.624   1.319   3.474
 1498SOL     OW 7705   2.777   0.089   3.264
 1498SOL    HW1 7706   2.802   0.069   3.169
 1498SOL    HW2 7707   2.849   0.145   3.306
 1499SOL     OW 7708   3.136   0.386   3.124
 1499SOL    HW1 7709   3.157   0.460   3.188
 1499SOL    HW2 7710   3.047   0.403   3.081
 1500SOL     OW 7711   2.428   0.537   2.727
 1500SOL    HW1 7712   2.440   0.603   2.653
 1500SOL    HW2 7713   2.474   0.571   2.810
 1501SOL     OW 7714   3.449   0.779   3.532
 1501SOL    HW1 7715   3.357   0.817   3.527
 1501SOL    HW2 7716   3.509   0.826   3.467
 1502SOL     OW 7717   2.875   0.105   3.632
 1502SOL    HW1 7718   2.881   0.190   3.580
 1502SOL    HW2 7719   2.907   0.029   3.575
 1503SOL     OW 7720   2.366   0.050   3.602
 1503SOL    HW1 7721   2.324  -0.007   3.532
 1503SOL    HW2 7722   2.300   0.119   3.634
 1504SOL     OW 7723   2.169   0.213   3.093
 1504SOL    HW1 7724   2.146   0.250   3.183
 1504SOL    HW2 7725   2.139   0.118   3.087
 1505SOL     OW 7726   2.594   0.634   2.926
 1505SOL    HW1 7727   2.653   0.608   2.850
 1505SOL    HW2 7728   2.566   0.730   2.915
 1506SOL     OW 7729   3.590   0.935   3.716
 1506SOL    HW1 7730   3.544   0.928   3.627
 1506SOL    HW2 7731   3.528   0.979   3.782
 1507SOL     OW 7732   2.169   0.063   2.480
 1507SOL    HW1 7733   2.158   0.157   2.513
 1507SOL    HW2 7734   2.164   0.000   2.557
 1508SOL     OW 7735   3.484   0.367   2.236
 1508SOL    HW1 7736   3.486   0.291   2.300
 1508SOL    HW2 7737   3.436   0.444   2.276
 1509SOL     OW 7738   3.721   1.518   3.467
 1509SOL    HW1 7739   3.735   1.545   3.372
 1509SOL    HW2 7740   3.804   1.540   3.520
 1510SOL     OW 7741   2.212   0.898   3.666
 1510SOL    HW1 7742   2.288   0.942   3.714
 1510SOL    HW2 7743   2.247   0.851   3.584
 1511SOL     OW 7744   3.402   0.274   1.987
 1511SOL    HW1 7745   3.341   0.199   2.010
 1511SOL    HW2 7746   3.424   0.326   2.070
 1512SOL     OW 7747   2.201   0.509   2.868
 1512SOL    HW1 7748   2.149   0.426   2.851
 1512SOL    HW2 7749   2.278   0.514   2.804
 1513SOL     OW 7750   3.000   0.380   3.540
 1513SOL    HW1 7751   2.955   0.443   3.604
 1513SOL    HW2 7752   3.093   0.411   3.523
 1514SOL     OW 7753   3.022   0.207   3.339
 1514SOL    HW1 7754   3.022   0.271   3.416
 1514SOL    HW2 7755   3.050   0.255   3.256
 1515SOL     OW 7756   1.902   0.544   2.976
 1515SOL    HW1 7757   1.987   0.511   2.935
 1515SOL    HW2 7758   1.915   0.559   3.074
 1516SOL     OW 7759   2.051   0.520   3.584
 1516SOL    HW1 7760   2.110   0.480   3.514
 1516SOL    HW2 7761   1.993   0.591   3.543
 1517SOL     OW 7762   3.519   0.604   3.068
 1517SOL    HW1 7763   3.481   0.535   3.130
 1517SOL    HW2 7764   3.601   0.568   3.024
 1518SOL     OW 7765   2.533   0.464   3.131
 1518SOL    HW1 7766   2.499   0.375   3.101
 1518SOL    HW2 7767   2.559   0.518   3.051
 1519SOL     OW 7768   2.335   0.500   2.053
 1519SOL    HW1 7769   2.396   0.580   2.057
 1519SOL    HW2 7770   2.240   0.531   2.060
 1520SOL     OW 7771   3.588   0.135   2.385
 1520SOL    HW1 7772   3.661   0.118   2.318
 1520SOL    HW2 7773   3.557   0.048   2.423
 1521SOL     OW 7774   3.703   0.175   2.825
 1521SOL    HW1 7775   3.742   0.090   2.789
 1521SOL    HW2 7776   3.605   0.177   2.806
 1522SOL     OW 7777   2.125   0.326   2.582
 1522SOL    HW1 7778   2.046   0.377   2.548
 1522SOL    HW2 7779   2.116   0.311   2.680
 1523SOL     OW 7780   2.876   0.236   2.833
 1523SOL    HW1 7781   2.868   0.200   2.740
 1523SOL    HW2 7782   2.874   0.160   2.898
 1524SOL     OW 7783   3.571   0.385   3.243
 1524SOL    HW1 7784   3.644   0.454   3.247
 1524SOL    HW2 7785   3.599   0.310   3.184
 1525SOL     OW 7786   2.534   0.203   3.351
 1525SOL    HW1 7787   2.624   0.187   3.311
 1525SOL    HW2 7788   2.542   0.208   3.450
 1526SOL     OW 7789   1.937   0.345   1.895
 1526SOL    HW1 7790   1.845   0.317   1.866
 1526SOL    HW2 7791   1.968   0.422   1.839
 1527SOL     OW 7792   3.302   0.856   3.260
 1527SOL    HW1 7793   3.245   0.908   3.197
 1527SOL    HW2 7794   3.398   0.868   3.236
 1528SOL     OW 7795   1.934   0.166   2.180
 1528SOL    HW1 7796   1.917   0.249   2.126
 1528SOL    HW2 7797   2.024   0.129   2.158
 1529SOL     OW 7798   2.578   0.565   3.570
 1529SOL    HW1 7799   2.597   0.630   3.644
 1529SOL    HW2 7800   2.638   0.485   3.579
 1530SOL     OW 7801   3.536   0.883   3.116
 1530SOL    HW1 7802   3.509   0.794   3.079
 1530SOL    HW2 7803   3.537   0.951   3.043
 1531SOL     OW 7804   3.087   0.325   2.311
 1531SOL    HW1 7805   3.152   0.251   2.300
 1531SOL    HW2 7806   3.107   0.375   2.395
 1532SOL     OW 7807   3.639   0.342   3.504
 1532SOL    HW1 7808   3.622   0.373   3.410
 1532SOL    HW2 7809   3.555   0.305   3.542
 1533SOL     OW 7810   3.592   0.934   3.379
 1533SOL    HW1 7811   3.630   1.025   3.394
 1533SOL    HW2 7812   3.584   0.917   3.280
 1534SOL     OW 7813   3.686   0.192   3.089
 1534SOL    HW1 7814   3.682   0.102   3.133
 1534SOL    HW2 7815   3.689   0.181   2.990
 1535SOL     OW 7816   2.290   0.424   2.382
 1535SOL    HW1 7817   2.320   0.352   2.320
 1535SOL    HW2 7818   2.251   0.384   2.465
 1536SOL     OW 7819   2.179   0.547   3.142
 1536SOL    HW1 7820   2.217   0.488   3.214
 1536SOL    HW2 7821   2.219   0.521   3.054
 1537SOL     OW 7822   3.286   0.214   2.974
 1537SOL    HW1 7823   3.338   0.149   3.029
 1537SOL    HW2 7824   3.237   0.277   3.035
 1538SOL     OW 7825   2.863   0.034   3.016
 1538SOL    HW1 7826   2.800  -0.038   2.985
 1538SOL    HW2 7827   2.956  -0.002   3.016
 1539SOL     OW 7828   3.214   0.052   2.030
 1539SOL    HW1 7829   3.249   0.011   1.946
 1539SOL    HW2 7830   3.124   0.014   2.050
 1540SOL     OW 7831   2.092   0.628   3.837
 1540SOL    HW1 7832   1.999   0.626   3.874
 1540SOL    HW2 7833   2.093   0.589   3.745
 1541SOL     OW 7834   2.087   0.275   4.720
 1541SOL    HW1 7835   2.122   0.258   4.812
 1541SOL    HW2 7836   1.999   0.230   4.708
 1542SOL     OW 7837   1.881   0.368   4.371
 1542SOL    HW1 7838   1.799   0.411   4.410
 1542SOL    HW2 7839   1.853   0.295   4.308
 1543SOL     OW 7840   2.431   1.275   4.889
 1543SOL    HW1 7841   2.338   1.268   4.852
 1543SOL    HW2 7842   2.442   1.364   4.933
 1544SOL     OW 7843   3.417   1.511   4.427
 1544SOL    HW1 7844   3.360   1.495   4.508
 1544SOL    HW2 7845   3.358   1.521   4.347
 1545SOL     OW 7846   2.997   0.703   4.441
 1545SOL    HW1 7847   3.054   0.781   4.416
 1545SOL    HW2 7848   2.937   0.729   4.517
 1546SOL     OW 7849   3.617   0.607   3.955
 1546SOL    HW1 7850   3.605   0.594   3.856
 1546SOL    HW2 7851   3.587   0.526   4.004
 1547SOL     OW 7852   2.630   1.144   4.747
 1547SOL    HW1 7853   2.552   1.161   4.807
 1547SOL    HW2 7854   2.664   1.231   4.711
 1548SOL     OW 7855   2.547   1.012   4.389
 1548SOL    HW1 7856   2.616   0.996   4.459
 1548SOL    HW2 7857   2.474   1.069   4.427
 1549SOL     OW 7858   2.197   1.435   4.785
 1549SOL    HW1 7859   2.119   1.404   4.732
 1549SOL    HW2 7860   2.255   1.493   4.728
 1550SOL     OW 7861   3.465   0.447   4.461
 1550SOL    HW1 7862   3.391   0.493   4.411
 1550SOL    HW2 7863   3.516   0.515   4.514
 1551SOL     OW 7864   2.093   1.713   4.207
 1551SOL    HW1 7865   2.127   1.790   4.261
 1551SOL    HW2 7866   2.137   1.713   4.117
 1552SOL     OW 7867   2.092   1.434   4.262
 1552SOL    HW1 7868   2.066   1.530   4.262
 1552SOL    HW2 7869   2.021   1.380   4.307
 1553SOL     OW 7870   2.102   1.091   4.610
 1553SOL    HW1 7871   2.116   1.007   4.662
 1553SOL    HW2 7872   2.047   1.155   4.665
 1554SOL     OW 7873   2.468   0.964   3.847
 1554SOL    HW1 7874   2.475   1.048   3.793
 1554SOL    HW2 7875   2.514   0.977   3.935
 1555SOL     OW 7876   1.984   0.643   4.287
 1555SOL    HW1 7877   1.939   0.555   4.304
 1555SOL    HW2 7878   1.983   0.697   4.371
 1556SOL     OW 7879   3.704   1.767   4.083
 1556SOL    HW1 7880   3.758   1.738   4.163
 1556SOL    HW2 7881   3.734   1.857   4.054
 1557SOL     OW 7882   1.889   1.596   3.841
 1557SOL    HW1 7883   1.870   1.500   3.862
 1557SOL    HW2 7884   1.856   1.654   3.916
 1558SOL     OW 7885   3.551   0.922   4.336
 1558SOL    HW1 7886   3.646   0.893   4.344
 1558SOL    HW2 7887   3.543   0.987   4.261
 1559SOL     OW 7888   3.503   1.108   4.156
 1559SOL    HW1 7889   3.589   1.110   4.104
 1559SOL    HW2 7890   3.517   1.155   4.244
 1560SOL     OW 7891   2.475   1.365   4.450
 1560SOL    HW1 7892   2.426   1.278   4.459
 1560SOL    HW2 7893   2.452   1.408   4.363
 1561SOL     OW 7894   2.671   0.004   4.226
 1561SOL    HW1 7895   2.711   0.095   4.217
 1561SOL    HW2 7896   2.571   0.012   4.232
 1562SOL     OW 7897   2.059   0.976   4.988
 1562SOL    HW1 7898   2.148   0.931   4.974
 1562SOL    HW2 7899   1.986   0.911   4.969
 1563SOL     OW 7900   3.387   0.999   3.914
 1563SOL    HW1 7901   3.324   0.923   3.927
 1563SOL    HW2 7902   3.435   1.017   4.000
 1564SOL     OW 7903   3.328   1.417   4.677
 1564SOL    HW1 7904   3.269   1.423   4.757
 1564SOL    HW2 7905   3.313   1.329   4.631
 1565SOL     OW 7906   3.529   1.714   4.296
 1565SOL    HW1 7907   3.488   1.691   4.208
 1565SOL    HW2 7908   3.511   1.640   4.361
 1566SOL     OW 7909   2.460   0.729   3.994
 1566SOL    HW1 7910   2.484   0.798   3.926
 1566SOL    HW2 7911   2.382   0.762   4.048
 1567SOL     OW 7912   3.143   0.345   4.668
 1567SOL    HW1 7913   3.057   0.295   4.655
 1567SOL    HW2 7914   3.205   0.291   4.724
 1568SOL     OW 7915   3.438   1.662   4.031
 1568SOL    HW1 7916   3.527   1.708   4.034
 1568SOL    HW2 7917   3.417   1.638   3.936
 1569SOL     OW 7918   2.903   0.701   4.153
 1569SOL    HW1 7919   2.929   0.697   4.249
 1569SOL    HW2 7920   2.818   0.650   4.139
 1570SOL     OW 7921   1.938   0.811   4.513
 1570SOL    HW1 7922   2.037   0.799   4.522
 1570SOL    HW2 7923   1.914   0.906   4.534
 1571SOL     OW 7924   2.727   0.348   3.919
 1571SOL    HW1 7925   2.786   0.411   3.870
 1571SOL    HW2 7926   2.746   0.254   3.890
 1572SOL     OW 7927   3.224   1.144   4.269
 1572SOL    HW1 7928   3.307   1.115   4.221
 1572SOL    HW2 7929   3.175   1.211   4.213
 1573SOL     OW 7930   2.412   0.196   4.609
 1573SOL    HW1 7931   2.407   0.191   4.709
 1573SOL    HW2 7932   2.414   0.292   4.580
 1574SOL     OW 7933   2.870   1.456   4.201
 1574SOL    HW1 7934   2.824   1.528   4.149
 1574SOL    HW2 7935   2.866   1.476   4.299
 1575SOL     OW 7936   2.213   1.801   4.577
 1575SOL    HW1 7937   2.263   1.715   4.583
 1575SOL    HW2 7938   2.278   1.878   4.574
 1576SOL     OW 7939   3.657   1.066   4.597
 1576SOL    HW1 7940   3.595   1.051   4.521
 1576SOL    HW2 7941   3.605   1.077   4.682
 1577SOL     OW 7942   2.183   0.943   3.966
 1577SOL    HW1 7943   2.265   0.982   3.924
 1577SOL    HW2 7944   2.156   0.861   3.917
 1578SOL     OW 7945   3.320   0.735   4.452
 1578SOL    HW1 7946   3.315   0.670   4.527
 1578SOL    HW2 7947   3.400   0.794   4.465
 1579SOL     OW 7948   3.494   1.377   3.805
 1579SOL    HW1 7949   3.462   1.471   3.795
 1579SOL    HW2 7950   3.418   1.314   3.793
 1580SOL     OW 7951   3.262   0.107   4.150
 1580SOL    HW1 7952   3.238   0.070   4.060
 1580SOL    HW2 7953   3.361   0.123   4.154
 1581SOL     OW 7954   2.111   1.785   4.965
 1581SOL    HW1 7955   2.168   1.720   5.015
 1581SOL    HW2 7956   2.095   1.752   4.872
 1582SOL     OW 7957   2.802   1.698   4.628
 1582SOL    HW1 7958   2.882   1.641   4.649
 1582SOL    HW2 7959   2.753   1.658   4.551
 1583SOL     OW 7960   2.244   0.700   4.204
 1583SOL    HW1 7961   2.289   0.610   4.201
 1583SOL    HW2 7962   2.150   0.689   4.237
 1584SOL     OW 7963   2.476   0.122   3.841
 1584SOL    HW1 7964   2.574   0.100   3.848
 1584SOL    HW2 7965   2.445   0.105   3.748
 1585SOL     OW 7966   2.665   1.402   4.648
 1585SOL    HW1 7967   2.755   1.416   4.606
 1585SOL    HW2 7968   2.594   1.404   4.577
 1586SOL     OW 7969   2.784   0.503   4.623
 1586SOL    HW1 7970   2.759   0.494   4.527
 1586SOL    HW2 7971   2.832   0.421   4.654
 1587SOL     OW 7972   2.401   0.064   4.236
 1587SOL    HW1 7973   2.320   0.065   4.294
 1587SOL    HW2 7974   2.404   0.147   4.181
 1588SOL     OW 7975   2.797   0.236   4.204
 1588SOL    HW1 7976   2.749   0.277   4.126
 1588SOL    HW2 7977   2.896   0.234   4.185
 1589SOL     OW 7978   3.089   1.570   4.517
 1589SOL    HW1 7979   3.110   1.644   4.452
 1589SOL    HW2 7980   3.157   1.570   4.590
 1590SOL     OW 7981   2.321   1.152   4.465
 1590SOL    HW1 7982   2.250   1.125   4.530
 1590SOL    HW2 7983   2.295   1.124   4.372
 1591SOL     OW 7984   3.133   1.797   4.315
 1591SOL    HW1 7985   3.177   1.861   4.251
 1591SOL    HW2 7986   3.083   1.849   4.385
 1592SOL     OW 7987   2.894   0.549   3.740
 1592SOL    HW1 7988   2.853   0.631   3.701
 1592SOL    HW2 7989   2.958   0.575   3.813
 1593SOL     OW 7990   2.728   0.454   4.366
 1593SOL    HW1 7991   2.696   0.526   4.304
 1593SOL    HW2 7992   2.752   0.373   4.313
 1594SOL     OW 7993   2.879   0.039   4.477
 1594SOL    HW1 7994   2.807   0.044   4.408
 1594SOL    HW2 7995   2.855  -0.030   4.546
 1595SOL     OW 7996   3.291   1.173   4.591
 1595SOL    HW1 7997   3.236   1.089   4.584
 1595SOL    HW2 7998   3.317   1.202   4.499
 1596SOL     OW 7999   3.328   0.590   4.716
 1596SOL    HW1 8000   3.298   0.495   4.723
 1596SOL    HW2 8001   3.401   0.606   4.782
 1597SOL     OW 8002   3.719   0.833   4.101
 1597SOL    HW1 8003   3.761   0.769   4.165
 1597SOL    HW2 8004   3.681   0.782   4.023
 1598SOL     OW 8005   3.526   1.280   4.381
 1598SOL    HW1 8006   3.625   1.288   4.395
 1598SOL    HW2 8007   3.481   1.364   4.412
 1599SOL     OW 8008   3.252   0.575   3.802
 1599SOL    HW1 8009   3.198   0.554   3.883
 1599SOL    HW2 8010   3.343   0.534   3.811
 1600SOL     OW 8011   2.389   0.256   4.052
 1600SOL    HW1 8012   2.416   0.197   3.977
 1600SOL    HW2 8013   2.389   0.351   4.021
 1601SOL     OW 8014   2.973   1.195   4.824
 1601SOL    HW1 8015   2.933   1.239   4.905
 1601SOL    HW2 8016   2.932   1.232   4.741
 1602SOL     OW 8017   3.500   1.099   4.803
 1602SOL    HW1 8018   3.505   1.180   4.862
 1602SOL    HW2 8019   3.414   1.101   4.752
 1603SOL     OW 8020   2.567   1.050   4.092
 1603SOL    HW1 8021   2.553   1.057   4.191
 1603SOL    HW2 8022   2.651   0.999   4.074
 1604SOL     OW 8023   2.272   0.813   4.975
 1604SOL    HW1 8024   2.358   0.825   5.025
 1604SOL    HW2 8025   2.230   0.726   5.002
 1605SOL     OW 8026   2.229   1.100   4.225
 1605SOL    HW1 8027   2.222   1.183   4.169
 1605SOL    HW2 8028   2.233   1.020   4.165
 1606SOL     OW 8029   2.428   0.537   4.589
 1606SOL    HW1 8030   2.440   0.603   4.515
 1606SOL    HW2 8031   2.474   0.571   4.672
 1607SOL     OW 8032   3.114   1.348   4.112
 1607SOL    HW1 8033   3.164   1.425   4.152
 1607SOL    HW2 8034   3.019   1.350   4.144
 1608SOL     OW 8035   3.134   1.445   4.866
 1608SOL    HW1 8036   3.181   1.458   4.953
 1608SOL    HW2 8037   3.068   1.371   4.875
 1609SOL     OW 8038   3.444   0.639   4.196
 1609SOL    HW1 8039   3.413   0.700   4.269
 1609SOL    HW2 8040   3.494   0.691   4.127
 1610SOL     OW 8041   2.435   0.870   4.753
 1610SOL    HW1 8042   2.479   0.959   4.744
 1610SOL    HW2 8043   2.372   0.870   4.830
 1611SOL     OW 8044   3.222   0.862   4.769
 1611SOL    HW1 8045   3.147   0.862   4.703
 1611SOL    HW2 8046   3.259   0.770   4.778
 1612SOL     OW 8047   3.071   0.525   3.999
 1612SOL    HW1 8048   3.084   0.441   4.053
 1612SOL    HW2 8049   3.042   0.599   4.059
 1613SOL     OW 8050   2.169   0.213   4.955
 1613SOL    HW1 8051   2.146   0.250   5.045
 1613SOL    HW2 8052   2.139   0.118   4.949
 1614SOL     OW 8053   1.899   1.310   5.006
 1614SOL    HW1 8054   1.952   1.261   5.074
 1614SOL    HW2 8055   1.921   1.408   5.011
 1615SOL     OW 8056   2.594   0.634   4.788
 1615SOL    HW1 8057   2.653   0.608   4.712
 1615SOL    HW2 8058   2.566   0.730   4.777
 1616SOL     OW 8059   2.169   0.063   4.342
 1616SOL    HW1 8060   2.158   0.157   4.375
 1616SOL    HW2 8061   2.164   0.000   4.419
 1617SOL     OW 8062   3.484   0.367   4.098
 1617SOL    HW1 8063   3.486   0.291   4.162
 1617SOL    HW2 8064   3.436   0.444   4.138
 1618SOL     OW 8065   2.885   0.766   4.690
 1618SOL    HW1 8066   2.900   0.787   4.786
 1618SOL    HW2 8067   2.855   0.671   4.681
 1619SOL     OW 8068   3.402   0.274   3.849
 1619SOL    HW1 8069   3.341   0.199   3.872
 1619SOL    HW2 8070   3.424   0.326   3.932
 1620SOL     OW 8071   3.165   0.838   3.766
 1620SOL    HW1 8072   3.199   0.745   3.781
 1620SOL    HW2 8073   3.183   0.865   3.671
 1621SOL     OW 8074   2.930   1.333   4.573
 1621SOL    HW1 8075   2.937   1.249   4.518
 1621SOL    HW2 8076   2.992   1.402   4.537
 1622SOL     OW 8077   2.181   0.810   4.673
 1622SOL    HW1 8078   2.274   0.846   4.678
 1622SOL    HW2 8079   2.175   0.725   4.725
 1623SOL     OW 8080   2.201   0.509   4.730
 1623SOL    HW1 8081   2.149   0.426   4.713
 1623SOL    HW2 8082   2.278   0.514   4.666
 1624SOL     OW 8083   3.022   0.207   5.201
 1624SOL    HW1 8084   3.022   0.271   5.278
 1624SOL    HW2 8085   3.050   0.255   5.118
 1625SOL     OW 8086   1.870   1.326   3.924
 1625SOL    HW1 8087   1.777   1.347   3.893
 1625SOL    HW2 8088   1.880   1.227   3.937
 1626SOL     OW 8089   1.950   1.801   4.651
 1626SOL    HW1 8090   1.908   1.715   4.624
 1626SOL    HW2 8091   2.044   1.804   4.617
 1627SOL     OW 8092   2.366   1.568   4.634
 1627SOL    HW1 8093   2.432   1.642   4.643
 1627SOL    HW2 8094   2.410   1.489   4.592
 1628SOL     OW 8095   2.864   0.796   4.962
 1628SOL    HW1 8096   2.905   0.764   5.048
 1628SOL    HW2 8097   2.768   0.769   4.959
 1629SOL     OW 8098   1.902   0.544   4.838
 1629SOL    HW1 8099   1.987   0.511   4.797
 1629SOL    HW2 8100   1.915   0.559   4.936
 1630SOL     OW 8101   2.677   0.572   4.049
 1630SOL    HW1 8102   2.684   0.483   4.003
 1630SOL    HW2 8103   2.583   0.606   4.041
 1631SOL     OW 8104   3.519   0.604   4.930
 1631SOL    HW1 8105   3.481   0.535   4.992
 1631SOL    HW2 8106   3.601   0.568   4.886
 1632SOL     OW 8107   2.533   0.464   4.993
 1632SOL    HW1 8108   2.499   0.375   4.963
 1632SOL    HW2 8109   2.559   0.518   4.913
 1633SOL     OW 8110   2.335   0.500   3.915
 1633SOL    HW1 8111   2.396   0.580   3.919
 1633SOL    HW2 8112   2.240   0.531   3.922
 1634SOL     OW 8113   2.021   1.137   5.190
 1634SOL    HW1 8114   2.043   1.076   5.266
 1634SOL    HW2 8115   2.031   1.088   5.104
 1635SOL     OW 8116   3.209   1.059   4.958
 1635SOL    HW1 8117   3.233   0.996   4.884
 1635SOL    HW2 8118   3.119   1.099   4.940
 1636SOL     OW 8119   3.164   0.855   4.033
 1636SOL    HW1 8120   3.078   0.824   4.075
 1636SOL    HW2 8121   3.160   0.841   3.934
 1637SOL     OW 8122   3.621   1.747   4.878
 1637SOL    HW1 8123   3.682   1.777   4.805
 1637SOL    HW2 8124   3.583   1.658   4.856
 1638SOL     OW 8125   1.945   1.258   4.746
 1638SOL    HW1 8126   1.940   1.257   4.846
 1638SOL    HW2 8127   1.862   1.217   4.708
 1639SOL     OW 8128   3.588   0.135   4.247
 1639SOL    HW1 8129   3.661   0.118   4.180
 1639SOL    HW2 8130   3.557   0.048   4.285
 1640SOL     OW 8131   3.250   1.573   4.201
 1640SOL    HW1 8132   3.317   1.585   4.127
 1640SOL    HW2 8133   3.210   1.662   4.224
 1641SOL     OW 8134   3.142   0.927   4.396
 1641SOL    HW1 8135   3.202   0.846   4.398
 1641SOL    HW2 8136   3.182   0.996   4.336
 1642SOL     OW 8137   3.512   1.720   5.118
 1642SOL    HW1 8138   3.565   1.730   5.034
 1642SOL    HW2 8139   3.485   1.810   5.152
 1643SOL     OW 8140   3.703   0.175   4.687
 1643SOL    HW1 8141   3.742   0.090   4.651
 1643SOL    HW2 8142   3.605   0.177   4.668
 1644SOL     OW 8143   2.125   0.326   4.444
 1644SOL    HW1 8144   2.046   0.377   4.410
 1644SOL    HW2 8145   2.116   0.311   4.542
 1645SOL     OW 8146   2.684   1.002   5.096
 1645SOL    HW1 8147   2.724   1.001   5.004
 1645SOL    HW2 8148   2.694   1.094   5.136
 1646SOL     OW 8149   2.778   0.910   4.015
 1646SOL    HW1 8150   2.841   0.948   3.947
 1646SOL    HW2 8151   2.818   0.827   4.054
 1647SOL     OW 8152   2.901   1.098   4.420
 1647SOL    HW1 8153   2.831   1.051   4.474
 1647SOL    HW2 8154   2.960   1.030   4.377
 1648SOL     OW 8155   2.876   0.236   4.695
 1648SOL    HW1 8156   2.868   0.200   4.602
 1648SOL    HW2 8157   2.874   0.160   4.760
 1649SOL     OW 8158   2.452   1.487   4.215
 1649SOL    HW1 8159   2.494   1.429   4.145
 1649SOL    HW2 8160   2.408   1.566   4.171
 1650SOL     OW 8161   3.571   0.385   5.105
 1650SOL    HW1 8162   3.644   0.454   5.109
 1650SOL    HW2 8163   3.599   0.310   5.046
 1651SOL     OW 8164   2.117   1.348   4.014
 1651SOL    HW1 8165   2.021   1.349   3.987
 1651SOL    HW2 8166   2.129   1.401   4.098
 1652SOL     OW 8167   3.045   1.335   3.843
 1652SOL    HW1 8168   2.946   1.324   3.845
 1652SOL    HW2 8169   3.079   1.350   3.936
 1653SOL     OW 8170   3.355   1.767   4.683
 1653SOL    HW1 8171   3.388   1.831   4.614
 1653SOL    HW2 8172   3.421   1.761   4.758
 1654SOL     OW 8173   3.536   0.883   4.978
 1654SOL    HW1 8174   3.509   0.794   4.941
 1654SOL    HW2 8175   3.537   0.951   4.905
 1655SOL     OW 8176   3.087   0.325   4.173
 1655SOL    HW1 8177   3.152   0.251   4.162
 1655SOL    HW2 8178   3.107   0.375   4.257
 1656SOL     OW 8179   2.456   0.745   4.376
 1656SOL    HW1 8180   2.506   0.830   4.357
 1656SOL    HW2 8181   2.368   0.747   4.328
 1657SOL     OW 8182   3.592   0.934   5.241
 1657SOL    HW1 8183   3.630   1.025   5.256
 1657SOL    HW2 8184   3.584   0.917   5.142
 1658SOL     OW 8185   2.523   1.790   4.677
 1658SOL    HW1 8186   2.477   1.878   4.664
 1658SOL    HW2 8187   2.622   1.802   4.670
 1659SOL     OW 8188   2.721   0.956   4.585
 1659SOL    HW1 8189   2.775   0.887   4.633
 1659SOL    HW2 8190   2.689   1.025   4.651
 1660SOL     OW 8191   2.945   0.984   3.811
 1660SOL    HW1 8192   2.922   1.037   3.729
 1660SOL    HW2 8193   3.026   0.928   3.792
 1661SOL     OW 8194   3.723   1.569   4.575
 1661SOL    HW1 8195   3.652   1.557   4.505
 1661SOL    HW2 8196   3.724   1.490   4.635
 1662SOL     OW 8197   1.941   1.240   4.377
 1662SOL    HW1 8198   1.940   1.193   4.465
 1662SOL    HW2 8199   2.023   1.212   4.326
 1663SOL     OW 8200   3.686   0.192   4.951
 1663SOL    HW1 8201   3.682   0.102   4.995
 1663SOL    HW2 8202   3.689   0.181   4.852
 1664SOL     OW 8203   2.290   0.424   4.244
 1664SOL    HW1 8204   2.320   0.352   4.182
 1664SOL    HW2 8205   2.251   0.384   4.327
 1665SOL     OW 8206   3.567   1.487   4.828
 1665SOL    HW1 8207   3.474   1.462   4.801
 1665SOL    HW2 8208   3.593   1.437   4.910
 1666SOL     OW 8209   2.674   1.586   4.411
 1666SOL    HW1 8210   2.706   1.596   4.317
 1666SOL    HW2 8211   2.595   1.524   4.413
 1667SOL     OW 8212   3.286   0.214   4.836
 1667SOL    HW1 8213   3.338   0.149   4.891
 1667SOL    HW2 8214   3.237   0.277   4.897
 1668SOL     OW 8215   2.863   0.034   4.878
 1668SOL    HW1 8216   2.800  -0.038   4.847
 1668SOL    HW2 8217   2.956  -0.002   4.878
 1669SOL     OW 8218   2.632   1.330   4.025
 1669SOL    HW1 8219   2.586   1.243   4.042
 1669SOL    HW2 8220   2.723   1.327   4.066
 1670SOL     OW 8221   3.214   0.052   3.892
 1670SOL    HW1 8222   3.249   0.011   3.808
 1670SOL    HW2 8223   3.124   0.014   3.912
 1671SOL     OW 8224   3.162   0.453   4.415
 1671SOL    HW1 8225   3.103   0.533   4.419
 1671SOL    HW2 8226   3.177   0.418   4.508
 1672SOL     OW 8227   3.455   0.221   4.606
 1672SOL    HW1 8228   3.371   0.220   4.660
 1672SOL    HW2 8229   3.457   0.304   4.550
 1673SOL     OW 8230   1.901   1.077   4.024
 1673SOL    HW1 8231   2.000   1.066   4.015
 1673SOL    HW2 8232   1.861   0.991   4.056
 1674SOL     OW 8233   2.092   2.490   0.113
 1674SOL    HW1 8234   1.999   2.488   0.150
 1674SOL    HW2 8235   2.093   2.451   0.021
 1675SOL     OW 8236   1.881   2.230   0.647
 1675SOL    HW1 8237   1.799   2.273   0.686
 1675SOL    HW2 8238   1.853   2.157   0.584
 1676SOL     OW 8239   3.617   2.469   0.231
 1676SOL    HW1 8240   3.605   2.456   0.132
 1676SOL    HW2 8241   3.587   2.388   0.280
 1677SOL     OW 8242   2.547   2.874   0.665
 1677SOL    HW1 8243   2.616   2.858   0.735
 1677SOL    HW2 8244   2.474   2.931   0.703
 1678SOL     OW 8245   2.093   3.575   0.483
 1678SOL    HW1 8246   2.127   3.652   0.537
 1678SOL    HW2 8247   2.137   3.575   0.393
 1679SOL     OW 8248   2.092   3.296   0.538
 1679SOL    HW1 8249   2.066   3.392   0.538
 1679SOL    HW2 8250   2.021   3.242   0.583
 1680SOL     OW 8251   2.102   2.953   0.886
 1680SOL    HW1 8252   2.116   2.869   0.938
 1680SOL    HW2 8253   2.047   3.017   0.941
 1681SOL     OW 8254   2.468   2.826   0.123
 1681SOL    HW1 8255   2.475   2.910   0.069
 1681SOL    HW2 8256   2.514   2.839   0.211
 1682SOL     OW 8257   1.984   2.505   0.563
 1682SOL    HW1 8258   1.939   2.417   0.580
 1682SOL    HW2 8259   1.983   2.559   0.647
 1683SOL     OW 8260   3.704   3.629   0.359
 1683SOL    HW1 8261   3.758   3.600   0.439
 1683SOL    HW2 8262   3.734   3.719   0.330
 1684SOL     OW 8263   1.889   3.458   0.117
 1684SOL    HW1 8264   1.870   3.362   0.138
 1684SOL    HW2 8265   1.856   3.516   0.192
 1685SOL     OW 8266   3.551   2.784   0.612
 1685SOL    HW1 8267   3.646   2.755   0.620
 1685SOL    HW2 8268   3.543   2.849   0.537
 1686SOL     OW 8269   3.503   2.970   0.432
 1686SOL    HW1 8270   3.589   2.972   0.380
 1686SOL    HW2 8271   3.517   3.017   0.520
 1687SOL     OW 8272   2.475   3.227   0.726
 1687SOL    HW1 8273   2.426   3.140   0.735
 1687SOL    HW2 8274   2.452   3.270   0.639
 1688SOL     OW 8275   2.671   1.866   0.502
 1688SOL    HW1 8276   2.711   1.957   0.493
 1688SOL    HW2 8277   2.571   1.874   0.508
 1689SOL     OW 8278   3.387   2.861   0.190
 1689SOL    HW1 8279   3.324   2.785   0.203
 1689SOL    HW2 8280   3.435   2.879   0.276
 1690SOL     OW 8281   2.460   2.591   0.270
 1690SOL    HW1 8282   2.484   2.660   0.202
 1690SOL    HW2 8283   2.382   2.624   0.324
 1691SOL     OW 8284   3.438   3.524   0.307
 1691SOL    HW1 8285   3.527   3.570   0.310
 1691SOL    HW2 8286   3.417   3.500   0.212
 1692SOL     OW 8287   2.903   2.563   0.429
 1692SOL    HW1 8288   2.929   2.559   0.525
 1692SOL    HW2 8289   2.818   2.512   0.415
 1693SOL     OW 8290   2.727   2.210   0.195
 1693SOL    HW1 8291   2.786   2.273   0.146
 1693SOL    HW2 8292   2.746   2.116   0.166
 1694SOL     OW 8293   3.224   3.006   0.545
 1694SOL    HW1 8294   3.307   2.977   0.497
 1694SOL    HW2 8295   3.175   3.073   0.489
 1695SOL     OW 8296   2.870   3.318   0.477
 1695SOL    HW1 8297   2.824   3.390   0.425
 1695SOL    HW2 8298   2.866   3.338   0.575
 1696SOL     OW 8299   2.213   3.663   0.853
 1696SOL    HW1 8300   2.263   3.577   0.859
 1696SOL    HW2 8301   2.278   3.740   0.850
 1697SOL     OW 8302   3.657   2.928   0.873
 1697SOL    HW1 8303   3.595   2.913   0.797
 1697SOL    HW2 8304   3.605   2.939   0.958
 1698SOL     OW 8305   2.183   2.805   0.242
 1698SOL    HW1 8306   2.265   2.844   0.200
 1698SOL    HW2 8307   2.156   2.723   0.193
 1699SOL     OW 8308   2.973   3.638   0.237
 1699SOL    HW1 8309   2.913   3.576   0.287
 1699SOL    HW2 8310   3.004   3.594   0.152
 1700SOL     OW 8311   3.494   3.239   0.081
 1700SOL    HW1 8312   3.462   3.333   0.071
 1700SOL    HW2 8313   3.418   3.176   0.069
 1701SOL     OW 8314   2.326   3.605   0.323
 1701SOL    HW1 8315   2.359   3.644   0.409
 1701SOL    HW2 8316   2.402   3.598   0.258
 1702SOL     OW 8317   3.262   1.969   0.426
 1702SOL    HW1 8318   3.238   1.932   0.336
 1702SOL    HW2 8319   3.361   1.985   0.430
 1703SOL     OW 8320   2.802   3.560   0.904
 1703SOL    HW1 8321   2.882   3.503   0.925
 1703SOL    HW2 8322   2.753   3.520   0.827
 1704SOL     OW 8323   2.244   2.562   0.480
 1704SOL    HW1 8324   2.289   2.472   0.477
 1704SOL    HW2 8325   2.150   2.551   0.513
 1705SOL     OW 8326   2.476   1.984   0.117
 1705SOL    HW1 8327   2.574   1.962   0.124
 1705SOL    HW2 8328   2.445   1.967   0.024
 1706SOL     OW 8329   2.665   3.264   0.924
 1706SOL    HW1 8330   2.755   3.278   0.882
 1706SOL    HW2 8331   2.594   3.266   0.853
 1707SOL     OW 8332   2.401   1.926   0.512
 1707SOL    HW1 8333   2.320   1.927   0.570
 1707SOL    HW2 8334   2.404   2.009   0.457
 1708SOL     OW 8335   3.296   3.050   0.041
 1708SOL    HW1 8336   3.328   2.974   0.098
 1708SOL    HW2 8337   3.204   3.077   0.071
 1709SOL     OW 8338   2.159   1.897   0.171
 1709SOL    HW1 8339   2.208   1.981   0.150
 1709SOL    HW2 8340   2.221   1.832   0.216
 1710SOL     OW 8341   2.797   2.098   0.480
 1710SOL    HW1 8342   2.749   2.139   0.402
 1710SOL    HW2 8343   2.896   2.096   0.461
 1711SOL     OW 8344   3.089   3.432   0.793
 1711SOL    HW1 8345   3.110   3.506   0.728
 1711SOL    HW2 8346   3.157   3.432   0.866
 1712SOL     OW 8347   2.321   3.014   0.741
 1712SOL    HW1 8348   2.250   2.987   0.806
 1712SOL    HW2 8349   2.295   2.986   0.648
 1713SOL     OW 8350   2.894   2.411   0.016
 1713SOL    HW1 8351   2.853   2.493  -0.023
 1713SOL    HW2 8352   2.958   2.437   0.089
 1714SOL     OW 8353   2.728   2.316   0.642
 1714SOL    HW1 8354   2.696   2.388   0.580
 1714SOL    HW2 8355   2.752   2.235   0.589
 1715SOL     OW 8356   2.879   1.901   0.753
 1715SOL    HW1 8357   2.807   1.906   0.684
 1715SOL    HW2 8358   2.855   1.832   0.822
 1716SOL     OW 8359   3.291   3.035   0.867
 1716SOL    HW1 8360   3.236   2.951   0.860
 1716SOL    HW2 8361   3.317   3.064   0.775
 1717SOL     OW 8362   3.719   2.695   0.377
 1717SOL    HW1 8363   3.761   2.631   0.441
 1717SOL    HW2 8364   3.681   2.644   0.299
 1718SOL     OW 8365   2.350   3.247   0.174
 1718SOL    HW1 8366   2.263   3.232   0.221
 1718SOL    HW2 8367   2.333   3.273   0.079
 1719SOL     OW 8368   3.526   3.142   0.657
 1719SOL    HW1 8369   3.625   3.150   0.671
 1719SOL    HW2 8370   3.481   3.226   0.688
 1720SOL     OW 8371   3.252   2.437   0.078
 1720SOL    HW1 8372   3.198   2.416   0.159
 1720SOL    HW2 8373   3.343   2.396   0.087
 1721SOL     OW 8374   2.389   2.118   0.328
 1721SOL    HW1 8375   2.416   2.059   0.253
 1721SOL    HW2 8376   2.389   2.213   0.297
 1722SOL     OW 8377   3.454   3.491   1.625
 1722SOL    HW1 8378   3.481   3.525   1.535
 1722SOL    HW2 8379   3.533   3.453   1.671
 1723SOL     OW 8380   2.567   2.912   0.368
 1723SOL    HW1 8381   2.553   2.919   0.467
 1723SOL    HW2 8382   2.651   2.861   0.350
 1724SOL     OW 8383   2.229   2.962   0.501
 1724SOL    HW1 8384   2.222   3.045   0.445
 1724SOL    HW2 8385   2.233   2.882   0.441
 1725SOL     OW 8386   3.114   3.210   0.388
 1725SOL    HW1 8387   3.164   3.287   0.428
 1725SOL    HW2 8388   3.019   3.212   0.420
 1726SOL     OW 8389   3.444   2.501   0.472
 1726SOL    HW1 8390   3.413   2.562   0.545
 1726SOL    HW2 8391   3.494   2.553   0.403
 1727SOL     OW 8392   3.071   2.387   0.275
 1727SOL    HW1 8393   3.084   2.303   0.329
 1727SOL    HW2 8394   3.042   2.461   0.335
 1728SOL     OW 8395   2.169   1.925   0.618
 1728SOL    HW1 8396   2.158   2.019   0.651
 1728SOL    HW2 8397   2.164   1.862   0.695
 1729SOL     OW 8398   3.484   2.229   0.374
 1729SOL    HW1 8399   3.486   2.153   0.438
 1729SOL    HW2 8400   3.436   2.306   0.414
 1730SOL     OW 8401   3.402   2.136   0.125
 1730SOL    HW1 8402   3.341   2.061   0.148
 1730SOL    HW2 8403   3.424   2.188   0.208
 1731SOL     OW 8404   3.165   2.700   0.042
 1731SOL    HW1 8405   3.199   2.607   0.057
 1731SOL    HW2 8406   3.183   2.727  -0.053
 1732SOL     OW 8407   2.930   3.195   0.849
 1732SOL    HW1 8408   2.937   3.111   0.794
 1732SOL    HW2 8409   2.992   3.264   0.813
 1733SOL     OW 8410   1.870   3.188   0.200
 1733SOL    HW1 8411   1.777   3.209   0.169
 1733SOL    HW2 8412   1.880   3.089   0.213
 1734SOL     OW 8413   1.950   3.663   0.927
 1734SOL    HW1 8414   1.908   3.577   0.900
 1734SOL    HW2 8415   2.044   3.666   0.893
 1735SOL     OW 8416   2.366   3.430   0.910
 1735SOL    HW1 8417   2.432   3.504   0.919
 1735SOL    HW2 8418   2.410   3.351   0.868
 1736SOL     OW 8419   2.677   2.434   0.325
 1736SOL    HW1 8420   2.684   2.345   0.279
 1736SOL    HW2 8421   2.583   2.468   0.317
 1737SOL     OW 8422   2.335   2.362   0.191
 1737SOL    HW1 8423   2.396   2.442   0.195
 1737SOL    HW2 8424   2.240   2.393   0.198
 1738SOL     OW 8425   3.164   2.717   0.309
 1738SOL    HW1 8426   3.078   2.686   0.351
 1738SOL    HW2 8427   3.160   2.703   0.210
 1739SOL     OW 8428   3.621   3.609   1.154
 1739SOL    HW1 8429   3.682   3.639   1.081
 1739SOL    HW2 8430   3.583   3.520   1.132
 1740SOL     OW 8431   2.765   1.948   0.133
 1740SOL    HW1 8432   2.816   1.949   0.047
 1740SOL    HW2 8433   2.821   1.906   0.204
 1741SOL     OW 8434   3.588   1.997   0.523
 1741SOL    HW1 8435   3.661   1.980   0.456
 1741SOL    HW2 8436   3.557   1.910   0.561
 1742SOL     OW 8437   3.142   2.789   0.672
 1742SOL    HW1 8438   3.202   2.708   0.674
 1742SOL    HW2 8439   3.182   2.858   0.612
 1743SOL     OW 8440   2.534   3.478   0.154
 1743SOL    HW1 8441   2.543   3.488   0.055
 1743SOL    HW2 8442   2.494   3.389   0.175
 1744SOL     OW 8443   3.512   3.582   1.394
 1744SOL    HW1 8444   3.565   3.592   1.310
 1744SOL    HW2 8445   3.485   3.672   1.428
 1745SOL     OW 8446   3.056   3.474   0.031
 1745SOL    HW1 8447   3.062   3.381   0.068
 1745SOL    HW2 8448   2.997   3.474  -0.049
 1746SOL     OW 8449   2.778   2.772   0.291
 1746SOL    HW1 8450   2.841   2.810   0.223
 1746SOL    HW2 8451   2.818   2.689   0.330
 1747SOL     OW 8452   3.366   3.469   0.044
 1747SOL    HW1 8453   3.274   3.506   0.051
 1747SOL    HW2 8454   3.404   3.489  -0.046
 1748SOL     OW 8455   2.901   2.960   0.696
 1748SOL    HW1 8456   2.831   2.913   0.750
 1748SOL    HW2 8457   2.960   2.892   0.653
 1749SOL     OW 8458   2.452   3.349   0.491
 1749SOL    HW1 8459   2.494   3.291   0.421
 1749SOL    HW2 8460   2.408   3.428   0.447
 1750SOL     OW 8461   2.117   3.210   0.290
 1750SOL    HW1 8462   2.021   3.211   0.263
 1750SOL    HW2 8463   2.129   3.263   0.374
 1751SOL     OW 8464   1.934   2.028   0.318
 1751SOL    HW1 8465   1.917   2.111   0.264
 1751SOL    HW2 8466   2.024   1.991   0.296
 1752SOL     OW 8467   3.045   3.197   0.119
 1752SOL    HW1 8468   2.946   3.186   0.121
 1752SOL    HW2 8469   3.079   3.212   0.212
 1753SOL     OW 8470   3.355   3.629   0.959
 1753SOL    HW1 8471   3.388   3.693   0.890
 1753SOL    HW2 8472   3.421   3.623   1.034
 1754SOL     OW 8473   3.087   2.187   0.449
 1754SOL    HW1 8474   3.152   2.113   0.438
 1754SOL    HW2 8475   3.107   2.237   0.533
 1755SOL     OW 8476   2.456   2.607   0.652
 1755SOL    HW1 8477   2.506   2.692   0.633
 1755SOL    HW2 8478   2.368   2.609   0.604
 1756SOL     OW 8479   2.721   3.236   0.016
 1756SOL    HW1 8480   2.675   3.251   0.104
 1756SOL    HW2 8481   2.765   3.321  -0.014
 1757SOL     OW 8482   2.523   3.652   0.953
 1757SOL    HW1 8483   2.477   3.740   0.940
 1757SOL    HW2 8484   2.622   3.664   0.946
 1758SOL     OW 8485   2.945   2.846   0.087
 1758SOL    HW1 8486   2.922   2.899   0.005
 1758SOL    HW2 8487   3.026   2.790   0.068
 1759SOL     OW 8488   3.723   3.431   0.851
 1759SOL    HW1 8489   3.652   3.419   0.781
 1759SOL    HW2 8490   3.724   3.352   0.911
 1760SOL     OW 8491   1.941   3.102   0.653
 1760SOL    HW1 8492   1.940   3.055   0.741
 1760SOL    HW2 8493   2.023   3.074   0.602
 1761SOL     OW 8494   3.686   2.054   1.227
 1761SOL    HW1 8495   3.682   1.964   1.271
 1761SOL    HW2 8496   3.689   2.043   1.128
 1762SOL     OW 8497   2.290   2.286   0.520
 1762SOL    HW1 8498   2.320   2.214   0.458
 1762SOL    HW2 8499   2.251   2.246   0.603
 1763SOL     OW 8500   2.674   3.448   0.687
 1763SOL    HW1 8501   2.706   3.458   0.593
 1763SOL    HW2 8502   2.595   3.386   0.689
 1764SOL     OW 8503   2.632   3.192   0.301
 1764SOL    HW1 8504   2.586   3.105   0.318
 1764SOL    HW2 8505   2.723   3.189   0.342
 1765SOL     OW 8506   3.214   1.914   0.168
 1765SOL    HW1 8507   3.249   1.873   0.084
 1765SOL    HW2 8508   3.124   1.876   0.188
 1766SOL     OW 8509   2.737   3.508   0.337
 1766SOL    HW1 8510   2.660   3.473   0.283
 1766SOL    HW2 8511   2.705   3.579   0.399
 1767SOL     OW 8512   3.721   3.380   3.467
 1767SOL    HW1 8513   3.735   3.407   3.372
 1767SOL    HW2 8514   3.804   3.402   3.520
 1768SOL     OW 8515   1.992   3.656   3.713
 1768SOL    HW1 8516   1.951   3.582   3.766
 1768SOL    HW2 8517   2.056   3.707   3.771
 1769SOL     OW 8518   2.087   2.137   4.720
 1769SOL    HW1 8519   2.122   2.120   4.812
 1769SOL    HW2 8520   1.999   2.092   4.708
 1770SOL     OW 8521   1.881   2.230   4.371
 1770SOL    HW1 8522   1.799   2.273   4.410
 1770SOL    HW2 8523   1.853   2.157   4.308
 1771SOL     OW 8524   2.431   3.137   4.889
 1771SOL    HW1 8525   2.338   3.130   4.852
 1771SOL    HW2 8526   2.442   3.226   4.933
 1772SOL     OW 8527   3.417   3.373   4.427
 1772SOL    HW1 8528   3.360   3.357   4.508
 1772SOL    HW2 8529   3.358   3.383   4.347
 1773SOL     OW 8530   2.997   2.565   4.441
 1773SOL    HW1 8531   3.054   2.643   4.416
 1773SOL    HW2 8532   2.937   2.591   4.517
 1774SOL     OW 8533   2.630   3.006   4.747
 1774SOL    HW1 8534   2.552   3.023   4.807
 1774SOL    HW2 8535   2.664   3.093   4.711
 1775SOL     OW 8536   2.547   2.874   4.389
 1775SOL    HW1 8537   2.616   2.858   4.459
 1775SOL    HW2 8538   2.474   2.931   4.427
 1776SOL     OW 8539   2.197   3.297   4.785
 1776SOL    HW1 8540   2.119   3.266   4.732
 1776SOL    HW2 8541   2.255   3.355   4.728
 1777SOL     OW 8542   3.465   2.309   4.461
 1777SOL    HW1 8543   3.391   2.355   4.411
 1777SOL    HW2 8544   3.516   2.377   4.514
 1778SOL     OW 8545   2.093   3.575   4.207
 1778SOL    HW1 8546   2.127   3.652   4.261
 1778SOL    HW2 8547   2.137   3.575   4.117
 1779SOL     OW 8548   2.092   3.296   4.262
 1779SOL    HW1 8549   2.066   3.392   4.262
 1779SOL    HW2 8550   2.021   3.242   4.307
 1780SOL     OW 8551   2.102   2.953   4.610
 1780SOL    HW1 8552   2.116   2.869   4.662
 1780SOL    HW2 8553   2.047   3.017   4.665
 1781SOL     OW 8554   1.984   2.505   4.287
 1781SOL    HW1 8555   1.939   2.417   4.304
 1781SOL    HW2 8556   1.983   2.559   4.371
 1782SOL     OW 8557   3.704   3.629   4.083
 1782SOL    HW1 8558   3.758   3.600   4.163
 1782SOL    HW2 8559   3.734   3.719   4.054
 1783SOL     OW 8560   1.889   3.458   3.841
 1783SOL    HW1 8561   1.870   3.362   3.862
 1783SOL    HW2 8562   1.856   3.516   3.916
 1784SOL     OW 8563   2.475   3.227   4.450
 1784SOL    HW1 8564   2.426   3.140   4.459
 1784SOL    HW2 8565   2.452   3.270   4.363
 1785SOL     OW 8566   2.671   1.866   4.226
 1785SOL    HW1 8567   2.711   1.957   4.217
 1785SOL    HW2 8568   2.571   1.874   4.232
 1786SOL     OW 8569   2.059   2.838   4.988
 1786SOL    HW1 8570   2.148   2.793   4.974
 1786SOL    HW2 8571   1.986   2.773   4.969
 1787SOL     OW 8572   3.328   3.279   4.677
 1787SOL    HW1 8573   3.269   3.285   4.757
 1787SOL    HW2 8574   3.313   3.191   4.631
 1788SOL     OW 8575   3.529   3.576   4.296
 1788SOL    HW1 8576   3.488   3.553   4.208
 1788SOL    HW2 8577   3.511   3.502   4.361
 1789SOL     OW 8578   3.143   2.207   4.668
 1789SOL    HW1 8579   3.057   2.157   4.655
 1789SOL    HW2 8580   3.205   2.153   4.724
 1790SOL     OW 8581   3.438   3.524   4.031
 1790SOL    HW1 8582   3.527   3.570   4.034
 1790SOL    HW2 8583   3.417   3.500   3.936
 1791SOL     OW 8584   1.938   2.673   4.513
 1791SOL    HW1 8585   2.037   2.661   4.522
 1791SOL    HW2 8586   1.914   2.768   4.534
 1792SOL     OW 8587   3.224   3.006   4.269
 1792SOL    HW1 8588   3.307   2.977   4.221
 1792SOL    HW2 8589   3.175   3.073   4.213
 1793SOL     OW 8590   2.412   2.058   4.609
 1793SOL    HW1 8591   2.407   2.053   4.709
 1793SOL    HW2 8592   2.414   2.154   4.580
 1794SOL     OW 8593   2.870   3.318   4.201
 1794SOL    HW1 8594   2.824   3.390   4.149
 1794SOL    HW2 8595   2.866   3.338   4.299
 1795SOL     OW 8596   3.657   2.928   4.597
 1795SOL    HW1 8597   3.595   2.913   4.521
 1795SOL    HW2 8598   3.605   2.939   4.682
 1796SOL     OW 8599   3.320   2.597   4.452
 1796SOL    HW1 8600   3.315   2.532   4.527
 1796SOL    HW2 8601   3.400   2.656   4.465
 1797SOL     OW 8602   2.973   3.638   3.961
 1797SOL    HW1 8603   2.913   3.576   4.011
 1797SOL    HW2 8604   3.004   3.594   3.876
 1798SOL     OW 8605   3.262   1.969   4.150
 1798SOL    HW1 8606   3.238   1.932   4.060
 1798SOL    HW2 8607   3.361   1.985   4.154
 1799SOL     OW 8608   2.111   3.647   4.965
 1799SOL    HW1 8609   2.168   3.582   5.015
 1799SOL    HW2 8610   2.095   3.614   4.872
 1800SOL     OW 8611   2.802   3.560   4.628
 1800SOL    HW1 8612   2.882   3.503   4.649
 1800SOL    HW2 8613   2.753   3.520   4.551
 1801SOL     OW 8614   2.665   3.264   4.648
 1801SOL    HW1 8615   2.755   3.278   4.606
 1801SOL    HW2 8616   2.594   3.266   4.577
 1802SOL     OW 8617   2.784   2.365   4.623
 1802SOL    HW1 8618   2.759   2.356   4.527
 1802SOL    HW2 8619   2.832   2.283   4.654
 1803SOL     OW 8620   2.401   1.926   4.236
 1803SOL    HW1 8621   2.320   1.927   4.294
 1803SOL    HW2 8622   2.404   2.009   4.181
 1804SOL     OW 8623   2.797   2.098   4.204
 1804SOL    HW1 8624   2.749   2.139   4.126
 1804SOL    HW2 8625   2.896   2.096   4.185
 1805SOL     OW 8626   3.089   3.432   4.517
 1805SOL    HW1 8627   3.110   3.506   4.452
 1805SOL    HW2 8628   3.157   3.432   4.590
 1806SOL     OW 8629   2.321   3.014   4.465
 1806SOL    HW1 8630   2.250   2.987   4.530
 1806SOL    HW2 8631   2.295   2.986   4.372
 1807SOL     OW 8632   3.133   3.659   4.315
 1807SOL    HW1 8633   3.177   3.723   4.251
 1807SOL    HW2 8634   3.083   3.711   4.385
 1808SOL     OW 8635   2.728   2.316   4.366
 1808SOL    HW1 8636   2.696   2.388   4.304
 1808SOL    HW2 8637   2.752   2.235   4.313
 1809SOL     OW 8638   2.879   1.901   4.477
 1809SOL    HW1 8639   2.807   1.906   4.408
 1809SOL    HW2 8640   2.855   1.832   4.546
 1810SOL     OW 8641   3.291   3.035   4.591
 1810SOL    HW1 8642   3.236   2.951   4.584
 1810SOL    HW2 8643   3.317   3.064   4.499
 1811SOL     OW 8644   3.328   2.452   4.716
 1811SOL    HW1 8645   3.298   2.357   4.723
 1811SOL    HW2 8646   3.401   2.468   4.782
 1812SOL     OW 8647   3.526   3.142   4.381
 1812SOL    HW1 8648   3.625   3.150   4.395
 1812SOL    HW2 8649   3.481   3.226   4.412
 1813SOL     OW 8650   2.973   3.057   4.824
 1813SOL    HW1 8651   2.933   3.101   4.905
 1813SOL    HW2 8652   2.932   3.094   4.741
 1814SOL     OW 8653   3.500   2.961   4.803
 1814SOL    HW1 8654   3.505   3.042   4.862
 1814SOL    HW2 8655   3.414   2.963   4.752
 1815SOL     OW 8656   2.272   2.675   4.975
 1815SOL    HW1 8657   2.358   2.687   5.025
 1815SOL    HW2 8658   2.230   2.588   5.002
 1816SOL     OW 8659   2.428   2.399   4.589
 1816SOL    HW1 8660   2.440   2.465   4.515
 1816SOL    HW2 8661   2.474   2.433   4.672
 1817SOL     OW 8662   3.114   3.210   4.112
 1817SOL    HW1 8663   3.164   3.287   4.152
 1817SOL    HW2 8664   3.019   3.212   4.144
 1818SOL     OW 8665   3.134   3.307   4.866
 1818SOL    HW1 8666   3.181   3.320   4.953
 1818SOL    HW2 8667   3.068   3.233   4.875
 1819SOL     OW 8668   2.435   2.732   4.753
 1819SOL    HW1 8669   2.479   2.821   4.744
 1819SOL    HW2 8670   2.372   2.732   4.830
 1820SOL     OW 8671   3.222   2.724   4.769
 1820SOL    HW1 8672   3.147   2.724   4.703
 1820SOL    HW2 8673   3.259   2.632   4.778
 1821SOL     OW 8674   2.169   2.075   4.955
 1821SOL    HW1 8675   2.146   2.112   5.045
 1821SOL    HW2 8676   2.139   1.980   4.949
 1822SOL     OW 8677   1.899   3.172   5.006
 1822SOL    HW1 8678   1.952   3.123   5.074
 1822SOL    HW2 8679   1.921   3.270   5.011
 1823SOL     OW 8680   2.594   2.496   4.788
 1823SOL    HW1 8681   2.653   2.470   4.712
 1823SOL    HW2 8682   2.566   2.592   4.777
 1824SOL     OW 8683   2.169   1.925   4.342
 1824SOL    HW1 8684   2.158   2.019   4.375
 1824SOL    HW2 8685   2.164   1.862   4.419
 1825SOL     OW 8686   2.885   2.628   4.690
 1825SOL    HW1 8687   2.900   2.649   4.786
 1825SOL    HW2 8688   2.855   2.533   4.681
 1826SOL     OW 8689   2.930   3.195   4.573
 1826SOL    HW1 8690   2.937   3.111   4.518
 1826SOL    HW2 8691   2.992   3.264   4.537
 1827SOL     OW 8692   2.181   2.672   4.673
 1827SOL    HW1 8693   2.274   2.708   4.678
 1827SOL    HW2 8694   2.175   2.587   4.725
 1828SOL     OW 8695   2.201   2.371   4.730
 1828SOL    HW1 8696   2.149   2.288   4.713
 1828SOL    HW2 8697   2.278   2.376   4.666
 1829SOL     OW 8698   3.022   2.069   5.201
 1829SOL    HW1 8699   3.022   2.133   5.278
 1829SOL    HW2 8700   3.050   2.117   5.118
 1830SOL     OW 8701   1.950   3.663   4.651
 1830SOL    HW1 8702   1.908   3.577   4.624
 1830SOL    HW2 8703   2.044   3.666   4.617
 1831SOL     OW 8704   2.366   3.430   4.634
 1831SOL    HW1 8705   2.432   3.504   4.643
 1831SOL    HW2 8706   2.410   3.351   4.592
 1832SOL     OW 8707   2.864   2.658   4.962
 1832SOL    HW1 8708   2.905   2.626   5.048
 1832SOL    HW2 8709   2.768   2.631   4.959
 1833SOL     OW 8710   1.902   2.406   4.838
 1833SOL    HW1 8711   1.987   2.373   4.797
 1833SOL    HW2 8712   1.915   2.421   4.936
 1834SOL     OW 8713   3.519   2.466   4.930
 1834SOL    HW1 8714   3.481   2.397   4.992
 1834SOL    HW2 8715   3.601   2.430   4.886
 1835SOL     OW 8716   2.533   2.326   4.993
 1835SOL    HW1 8717   2.499   2.237   4.963
 1835SOL    HW2 8718   2.559   2.380   4.913
 1836SOL     OW 8719   2.021   2.999   5.190
 1836SOL    HW1 8720   2.043   2.938   5.266
 1836SOL    HW2 8721   2.031   2.950   5.104
 1837SOL     OW 8722   3.209   2.921   4.958
 1837SOL    HW1 8723   3.233   2.858   4.884
 1837SOL    HW2 8724   3.119   2.961   4.940
 1838SOL     OW 8725   3.621   3.609   4.878
 1838SOL    HW1 8726   3.682   3.639   4.805
 1838SOL    HW2 8727   3.583   3.520   4.856
 1839SOL     OW 8728   1.945   3.120   4.746
 1839SOL    HW1 8729   1.940   3.119   4.846
 1839SOL    HW2 8730   1.862   3.079   4.708
 1840SOL     OW 8731   3.588   1.997   4.247
 1840SOL    HW1 8732   3.661   1.980   4.180
 1840SOL    HW2 8733   3.557   1.910   4.285
 1841SOL     OW 8734   3.250   3.435   4.201
 1841SOL    HW1 8735   3.317   3.447   4.127
 1841SOL    HW2 8736   3.210   3.524   4.224
 1842SOL     OW 8737   3.142   2.789   4.396
 1842SOL    HW1 8738   3.202   2.708   4.398
 1842SOL    HW2 8739   3.182   2.858   4.336
 1843SOL     OW 8740   3.512   3.582   5.118
 1843SOL    HW1 8741   3.565   3.592   5.034
 1843SOL    HW2 8742   3.485   3.672   5.152
 1844SOL     OW 8743   3.703   2.037   4.687
 1844SOL    HW1 8744   3.742   1.952   4.651
 1844SOL    HW2 8745   3.605   2.039   4.668
 1845SOL     OW 8746   2.125   2.188   4.444
 1845SOL    HW1 8747   2.046   2.239   4.410
 1845SOL    HW2 8748   2.116   2.173   4.542
 1846SOL     OW 8749   2.684   2.864   5.096
 1846SOL    HW1 8750   2.724   2.863   5.004
 1846SOL    HW2 8751   2.694   2.956   5.136
 1847SOL     OW 8752   2.901   2.960   4.420
 1847SOL    HW1 8753   2.831   2.913   4.474
 1847SOL    HW2 8754   2.960   2.892   4.377
 1848SOL     OW 8755   2.876   2.098   4.695
 1848SOL    HW1 8756   2.868   2.062   4.602
 1848SOL    HW2 8757   2.874   2.022   4.760
 1849SOL     OW 8758   2.452   3.349   4.215
 1849SOL    HW1 8759   2.494   3.291   4.145
 1849SOL    HW2 8760   2.408   3.428   4.171
 1850SOL     OW 8761   3.571   2.247   5.105
 1850SOL    HW1 8762   3.644   2.316   5.109
 1850SOL    HW2 8763   3.599   2.172   5.046
 1851SOL     OW 8764   2.117   3.210   4.014
 1851SOL    HW1 8765   2.021   3.211   3.987
 1851SOL    HW2 8766   2.129   3.263   4.098
 1852SOL     OW 8767   1.934   2.028   4.042
 1852SOL    HW1 8768   1.917   2.111   3.988
 1852SOL    HW2 8769   2.024   1.991   4.020
 1853SOL     OW 8770   3.355   3.629   4.683
 1853SOL    HW1 8771   3.388   3.693   4.614
 1853SOL    HW2 8772   3.421   3.623   4.758
 1854SOL     OW 8773   3.536   2.745   4.978
 1854SOL    HW1 8774   3.509   2.656   4.941
 1854SOL    HW2 8775   3.537   2.813   4.905
 1855SOL     OW 8776   3.087   2.187   4.173
 1855SOL    HW1 8777   3.152   2.113   4.162
 1855SOL    HW2 8778   3.107   2.237   4.257
 1856SOL     OW 8779   3.592   2.796   5.241
 1856SOL    HW1 8780   3.630   2.887   5.256
 1856SOL    HW2 8781   3.584   2.779   5.142
 1857SOL     OW 8782   2.721   2.818   4.585
 1857SOL    HW1 8783   2.775   2.749   4.633
 1857SOL    HW2 8784   2.689   2.887   4.651
 1858SOL     OW 8785   3.723   3.431   4.575
 1858SOL    HW1 8786   3.652   3.419   4.505
 1858SOL    HW2 8787   3.724   3.352   4.635
 1859SOL     OW 8788   1.941   3.102   4.377
 1859SOL    HW1 8789   1.940   3.055   4.465
 1859SOL    HW2 8790   2.023   3.074   4.326
 1860SOL     OW 8791   3.686   2.054   4.951
 1860SOL    HW1 8792   3.682   1.964   4.995
 1860SOL    HW2 8793   3.689   2.043   4.852
 1861SOL     OW 8794   2.290   2.286   4.244
 1861SOL    HW1 8795   2.320   2.214   4.182
 1861SOL    HW2 8796   2.251   2.246   4.327
 1862SOL     OW 8797   3.567   3.349   4.828
 1862SOL    HW1 8798   3.474   3.324   4.801
 1862SOL    HW2 8799   3.593   3.299   4.910
 1863SOL     OW 8800   2.674   3.448   4.411
 1863SOL    HW1 8801   2.706   3.458   4.317
 1863SOL    HW2 8802   2.595   3.386   4.413
 1864SOL     OW 8803   3.286   2.076   4.836
 1864SOL    HW1 8804   3.338   2.011   4.891
 1864SOL    HW2 8805   3.237   2.139   4.897
 1865SOL     OW 8806   2.863   1.896   4.878
 1865SOL    HW1 8807   2.800   1.824   4.847
 1865SOL    HW2 8808   2.956   1.860   4.878
 1866SOL     OW 8809   2.632   3.192   4.025
 1866SOL    HW1 8810   2.586   3.105   4.042
 1866SOL    HW2 8811   2.723   3.189   4.066
 1867SOL     OW 8812   3.162   2.315   4.415
 1867SOL    HW1 8813   3.103   2.395   4.419
 1867SOL    HW2 8814   3.177   2.280   4.508
 1868SOL     OW 8815   3.455   2.083   4.606
 1868SOL    HW1 8816   3.371   2.082   4.660
 1868SOL    HW2 8817   3.457   2.166   4.550
 1869SOL     OW 8818   2.092   4.352   0.113
 1869SOL    HW1 8819   1.999   4.350   0.150
 1869SOL    HW2 8820   2.093   4.313   0.021
 1870SOL     OW 8821   2.087   3.999   0.996
 1870SOL    HW1 8822   2.122   3.982   1.088
 1870SOL    HW2 8823   1.999   3.954   0.984
 1871SOL     OW 8824   1.881   4.092   0.647
 1871SOL    HW1 8825   1.799   4.135   0.686
 1871SOL    HW2 8826   1.853   4.019   0.584
 1872SOL     OW 8827   2.997   4.427   0.717
 1872SOL    HW1 8828   3.054   4.505   0.692
 1872SOL    HW2 8829   2.937   4.453   0.793
 1873SOL     OW 8830   3.617   4.331   0.231
 1873SOL    HW1 8831   3.605   4.318   0.132
 1873SOL    HW2 8832   3.587   4.250   0.280
 1874SOL     OW 8833   2.630   4.868   1.023
 1874SOL    HW1 8834   2.552   4.885   1.083
 1874SOL    HW2 8835   2.664   4.955   0.987
 1875SOL     OW 8836   2.547   4.736   0.665
 1875SOL    HW1 8837   2.616   4.720   0.735
 1875SOL    HW2 8838   2.474   4.793   0.703
 1876SOL     OW 8839   2.548   4.885   1.803
 1876SOL    HW1 8840   2.608   4.964   1.817
 1876SOL    HW2 8841   2.462   4.916   1.762
 1877SOL     OW 8842   2.300   4.116   1.499
 1877SOL    HW1 8843   2.382   4.060   1.508
 1877SOL    HW2 8844   2.219   4.058   1.503
 1878SOL     OW 8845   2.102   4.815   0.886
 1878SOL    HW1 8846   2.116   4.731   0.938
 1878SOL    HW2 8847   2.047   4.879   0.941
 1879SOL     OW 8848   2.468   4.688   0.123
 1879SOL    HW1 8849   2.475   4.772   0.069
 1879SOL    HW2 8850   2.514   4.701   0.211
 1880SOL     OW 8851   3.456   3.838   1.480
 1880SOL    HW1 8852   3.438   3.905   1.408
 1880SOL    HW2 8853   3.453   3.884   1.569
 1881SOL     OW 8854   1.984   4.367   0.563
 1881SOL    HW1 8855   1.939   4.279   0.580
 1881SOL    HW2 8856   1.983   4.421   0.647
 1882SOL     OW 8857   3.551   4.646   0.612
 1882SOL    HW1 8858   3.646   4.617   0.620
 1882SOL    HW2 8859   3.543   4.711   0.537
 1883SOL     OW 8860   3.503   4.832   0.432
 1883SOL    HW1 8861   3.589   4.834   0.380
 1883SOL    HW2 8862   3.517   4.879   0.520
 1884SOL     OW 8863   1.975   4.461   1.597
 1884SOL    HW1 8864   2.063   4.448   1.642
 1884SOL    HW2 8865   1.962   4.558   1.575
 1885SOL     OW 8866   2.671   3.728   0.502
 1885SOL    HW1 8867   2.711   3.819   0.493
 1885SOL    HW2 8868   2.571   3.736   0.508
 1886SOL     OW 8869   2.059   4.700   1.264
 1886SOL    HW1 8870   2.148   4.655   1.250
 1886SOL    HW2 8871   1.986   4.635   1.245
 1887SOL     OW 8872   3.387   4.723   0.190
 1887SOL    HW1 8873   3.324   4.647   0.203
 1887SOL    HW2 8874   3.435   4.741   0.276
 1888SOL     OW 8875   2.460   4.453   0.270
 1888SOL    HW1 8876   2.484   4.522   0.202
 1888SOL    HW2 8877   2.382   4.486   0.324
 1889SOL     OW 8878   3.143   4.069   0.944
 1889SOL    HW1 8879   3.057   4.019   0.931
 1889SOL    HW2 8880   3.205   4.015   1.000
 1890SOL     OW 8881   2.669   4.329   1.465
 1890SOL    HW1 8882   2.622   4.326   1.554
 1890SOL    HW2 8883   2.618   4.274   1.399
 1891SOL     OW 8884   3.256   4.193   1.674
 1891SOL    HW1 8885   3.236   4.236   1.762
 1891SOL    HW2 8886   3.334   4.131   1.683
 1892SOL     OW 8887   2.835   4.614   1.572
 1892SOL    HW1 8888   2.881   4.530   1.543
 1892SOL    HW2 8889   2.779   4.648   1.497
 1893SOL     OW 8890   2.853   4.134   1.242
 1893SOL    HW1 8891   2.776   4.168   1.296
 1893SOL    HW2 8892   2.819   4.083   1.163
 1894SOL     OW 8893   2.903   4.425   0.429
 1894SOL    HW1 8894   2.929   4.421   0.525
 1894SOL    HW2 8895   2.818   4.374   0.415
 1895SOL     OW 8896   1.938   4.535   0.789
 1895SOL    HW1 8897   2.037   4.523   0.798
 1895SOL    HW2 8898   1.914   4.630   0.810
 1896SOL     OW 8899   2.727   4.072   0.195
 1896SOL    HW1 8900   2.786   4.135   0.146
 1896SOL    HW2 8901   2.746   3.978   0.166
 1897SOL     OW 8902   3.581   4.309   1.831
 1897SOL    HW1 8903   3.555   4.398   1.795
 1897SOL    HW2 8904   3.579   4.241   1.758
 1898SOL     OW 8905   3.224   4.868   0.545
 1898SOL    HW1 8906   3.307   4.839   0.497
 1898SOL    HW2 8907   3.175   4.935   0.489
 1899SOL     OW 8908   2.412   3.920   0.885
 1899SOL    HW1 8909   2.407   3.915   0.985
 1899SOL    HW2 8910   2.414   4.016   0.856
 1900SOL     OW 8911   3.657   4.790   0.873
 1900SOL    HW1 8912   3.595   4.775   0.797
 1900SOL    HW2 8913   3.605   4.801   0.958
 1901SOL     OW 8914   2.183   4.667   0.242
 1901SOL    HW1 8915   2.265   4.706   0.200
 1901SOL    HW2 8916   2.156   4.585   0.193
 1902SOL     OW 8917   3.320   4.459   0.728
 1902SOL    HW1 8918   3.315   4.394   0.803
 1902SOL    HW2 8919   3.400   4.518   0.741
 1903SOL     OW 8920   2.064   4.009   1.498
 1903SOL    HW1 8921   1.984   4.069   1.485
 1903SOL    HW2 8922   2.054   3.960   1.584
 1904SOL     OW 8923   2.244   4.424   0.480
 1904SOL    HW1 8924   2.289   4.334   0.477
 1904SOL    HW2 8925   2.150   4.413   0.513
 1905SOL     OW 8926   3.409   3.946   1.729
 1905SOL    HW1 8927   3.404   3.983   1.821
 1905SOL    HW2 8928   3.337   3.877   1.717
 1906SOL     OW 8929   2.476   3.846   0.117
 1906SOL    HW1 8930   2.574   3.824   0.124
 1906SOL    HW2 8931   2.445   3.829   0.024
 1907SOL     OW 8932   3.213   4.314   1.433
 1907SOL    HW1 8933   3.241   4.271   1.518
 1907SOL    HW2 8934   3.238   4.410   1.434
 1908SOL     OW 8935   2.784   4.227   0.899
 1908SOL    HW1 8936   2.759   4.218   0.803
 1908SOL    HW2 8937   2.832   4.145   0.930
 1909SOL     OW 8938   2.401   3.788   0.512
 1909SOL    HW1 8939   2.320   3.789   0.570
 1909SOL    HW2 8940   2.404   3.871   0.457
 1910SOL     OW 8941   2.159   3.759   0.171
 1910SOL    HW1 8942   2.208   3.843   0.150
 1910SOL    HW2 8943   2.221   3.694   0.216
 1911SOL     OW 8944   2.797   3.960   0.480
 1911SOL    HW1 8945   2.749   4.001   0.402
 1911SOL    HW2 8946   2.896   3.958   0.461
 1912SOL     OW 8947   2.938   4.407   1.464
 1912SOL    HW1 8948   2.858   4.346   1.467
 1912SOL    HW2 8949   3.019   4.354   1.440
 1913SOL     OW 8950   2.321   4.876   0.741
 1913SOL    HW1 8951   2.250   4.849   0.806
 1913SOL    HW2 8952   2.295   4.848   0.648
 1914SOL     OW 8953   2.894   4.273   0.016
 1914SOL    HW1 8954   2.853   4.355  -0.023
 1914SOL    HW2 8955   2.958   4.299   0.089
 1915SOL     OW 8956   1.940   4.280   1.386
 1915SOL    HW1 8957   2.032   4.279   1.345
 1915SOL    HW2 8958   1.934   4.354   1.453
 1916SOL     OW 8959   2.423   3.946   1.147
 1916SOL    HW1 8960   2.461   3.862   1.184
 1916SOL    HW2 8961   2.335   3.965   1.191
 1917SOL     OW 8962   2.728   4.178   0.642
 1917SOL    HW1 8963   2.696   4.250   0.580
 1917SOL    HW2 8964   2.752   4.097   0.589
 1918SOL     OW 8965   2.879   3.763   0.753
 1918SOL    HW1 8966   2.807   3.768   0.684
 1918SOL    HW2 8967   2.855   3.694   0.822
 1919SOL     OW 8968   3.291   4.897   0.867
 1919SOL    HW1 8969   3.236   4.813   0.860
 1919SOL    HW2 8970   3.317   4.926   0.775
 1920SOL     OW 8971   3.328   4.314   0.992
 1920SOL    HW1 8972   3.298   4.219   0.999
 1920SOL    HW2 8973   3.401   4.330   1.058
 1921SOL     OW 8974   3.719   4.557   0.377
 1921SOL    HW1 8975   3.761   4.493   0.441
 1921SOL    HW2 8976   3.681   4.506   0.299
 1922SOL     OW 8977   3.252   4.299   0.078
 1922SOL    HW1 8978   3.198   4.278   0.159
 1922SOL    HW2 8979   3.343   4.258   0.087
 1923SOL     OW 8980   2.389   3.980   0.328
 1923SOL    HW1 8981   2.416   3.921   0.253
 1923SOL    HW2 8982   2.389   4.075   0.297
 1924SOL     OW 8983   3.616   4.947   1.588
 1924SOL    HW1 8984   3.707   4.908   1.575
 1924SOL    HW2 8985   3.624   5.043   1.612
 1925SOL     OW 8986   3.500   4.823   1.079
 1925SOL    HW1 8987   3.505   4.904   1.138
 1925SOL    HW2 8988   3.414   4.825   1.028
 1926SOL     OW 8989   2.842   4.840   1.719
 1926SOL    HW1 8990   2.743   4.846   1.729
 1926SOL    HW2 8991   2.865   4.760   1.663
 1927SOL     OW 8992   2.567   4.774   0.368
 1927SOL    HW1 8993   2.553   4.781   0.467
 1927SOL    HW2 8994   2.651   4.723   0.350
 1928SOL     OW 8995   2.272   4.537   1.251
 1928SOL    HW1 8996   2.358   4.549   1.301
 1928SOL    HW2 8997   2.230   4.450   1.278
 1929SOL     OW 8998   3.136   4.110   1.262
 1929SOL    HW1 8999   3.157   4.184   1.326
 1929SOL    HW2 9000   3.047   4.127   1.219
 1930SOL     OW 9001   2.229   4.824   0.501
 1930SOL    HW1 9002   2.222   4.907   0.445
 1930SOL    HW2 9003   2.233   4.744   0.441
 1931SOL     OW 9004   2.428   4.261   0.865
 1931SOL    HW1 9005   2.440   4.327   0.791
 1931SOL    HW2 9006   2.474   4.295   0.948
 1932SOL     OW 9007   3.444   4.363   0.472
 1932SOL    HW1 9008   3.413   4.424   0.545
 1932SOL    HW2 9009   3.494   4.415   0.403
 1933SOL     OW 9010   2.264   4.475   1.598
 1933SOL    HW1 9011   2.332   4.530   1.551
 1933SOL    HW2 9012   2.304   4.387   1.625
 1934SOL     OW 9013   3.449   4.503   1.670
 1934SOL    HW1 9014   3.357   4.541   1.665
 1934SOL    HW2 9015   3.509   4.550   1.605
 1935SOL     OW 9016   2.435   4.594   1.029
 1935SOL    HW1 9017   2.479   4.683   1.020
 1935SOL    HW2 9018   2.372   4.594   1.106
 1936SOL     OW 9019   3.222   4.586   1.045
 1936SOL    HW1 9020   3.147   4.586   0.979
 1936SOL    HW2 9021   3.259   4.494   1.054
 1937SOL     OW 9022   3.071   4.249   0.275
 1937SOL    HW1 9023   3.084   4.165   0.329
 1937SOL    HW2 9024   3.042   4.323   0.335
 1938SOL     OW 9025   2.169   3.937   1.231
 1938SOL    HW1 9026   2.146   3.974   1.321
 1938SOL    HW2 9027   2.139   3.842   1.225
 1939SOL     OW 9028   2.594   4.358   1.064
 1939SOL    HW1 9029   2.653   4.332   0.988
 1939SOL    HW2 9030   2.566   4.454   1.053
 1940SOL     OW 9031   3.590   4.659   1.854
 1940SOL    HW1 9032   3.544   4.652   1.765
 1940SOL    HW2 9033   3.528   4.703   1.920
 1941SOL     OW 9034   2.169   3.787   0.618
 1941SOL    HW1 9035   2.158   3.881   0.651
 1941SOL    HW2 9036   2.164   3.724   0.695
 1942SOL     OW 9037   3.484   4.091   0.374
 1942SOL    HW1 9038   3.486   4.015   0.438
 1942SOL    HW2 9039   3.436   4.168   0.414
 1943SOL     OW 9040   2.885   4.490   0.966
 1943SOL    HW1 9041   2.900   4.511   1.062
 1943SOL    HW2 9042   2.855   4.395   0.957
 1944SOL     OW 9043   2.212   4.622   1.804
 1944SOL    HW1 9044   2.288   4.666   1.852
 1944SOL    HW2 9045   2.247   4.575   1.722
 1945SOL     OW 9046   3.402   3.998   0.125
 1945SOL    HW1 9047   3.341   3.923   0.148
 1945SOL    HW2 9048   3.424   4.050   0.208
 1946SOL     OW 9049   3.165   4.562   0.042
 1946SOL    HW1 9050   3.199   4.469   0.057
 1946SOL    HW2 9051   3.183   4.589  -0.053
 1947SOL     OW 9052   2.181   4.534   0.949
 1947SOL    HW1 9053   2.274   4.570   0.954
 1947SOL    HW2 9054   2.175   4.449   1.001
 1948SOL     OW 9055   2.201   4.233   1.006
 1948SOL    HW1 9056   2.149   4.150   0.989
 1948SOL    HW2 9057   2.278   4.238   0.942
 1949SOL     OW 9058   3.000   4.104   1.678
 1949SOL    HW1 9059   2.955   4.167   1.742
 1949SOL    HW2 9060   3.093   4.135   1.661
 1950SOL     OW 9061   1.870   5.050   0.200
 1950SOL    HW1 9062   1.777   5.071   0.169
 1950SOL    HW2 9063   1.880   4.951   0.213
 1951SOL     OW 9064   2.864   4.520   1.238
 1951SOL    HW1 9065   2.905   4.488   1.324
 1951SOL    HW2 9066   2.768   4.493   1.235
 1952SOL     OW 9067   1.902   4.268   1.114
 1952SOL    HW1 9068   1.987   4.235   1.073
 1952SOL    HW2 9069   1.915   4.283   1.212
 1953SOL     OW 9070   2.051   4.244   1.722
 1953SOL    HW1 9071   2.110   4.204   1.652
 1953SOL    HW2 9072   1.993   4.315   1.681
 1954SOL     OW 9073   2.677   4.296   0.325
 1954SOL    HW1 9074   2.684   4.207   0.279
 1954SOL    HW2 9075   2.583   4.330   0.317
 1955SOL     OW 9076   3.519   4.328   1.206
 1955SOL    HW1 9077   3.481   4.259   1.268
 1955SOL    HW2 9078   3.601   4.292   1.162
 1956SOL     OW 9079   2.533   4.188   1.269
 1956SOL    HW1 9080   2.499   4.099   1.239
 1956SOL    HW2 9081   2.559   4.242   1.189
 1957SOL     OW 9082   2.335   4.224   0.191
 1957SOL    HW1 9083   2.396   4.304   0.195
 1957SOL    HW2 9084   2.240   4.255   0.198
 1958SOL     OW 9085   2.021   4.861   1.466
 1958SOL    HW1 9086   2.043   4.800   1.542
 1958SOL    HW2 9087   2.031   4.812   1.380
 1959SOL     OW 9088   3.209   4.783   1.234
 1959SOL    HW1 9089   3.233   4.720   1.160
 1959SOL    HW2 9090   3.119   4.823   1.216
 1960SOL     OW 9091   3.164   4.579   0.309
 1960SOL    HW1 9092   3.078   4.548   0.351
 1960SOL    HW2 9093   3.160   4.565   0.210
 1961SOL     OW 9094   1.945   4.982   1.022
 1961SOL    HW1 9095   1.940   4.981   1.122
 1961SOL    HW2 9096   1.862   4.941   0.984
 1962SOL     OW 9097   2.765   3.810   0.133
 1962SOL    HW1 9098   2.816   3.811   0.047
 1962SOL    HW2 9099   2.821   3.768   0.204
 1963SOL     OW 9100   3.588   3.859   0.523
 1963SOL    HW1 9101   3.661   3.842   0.456
 1963SOL    HW2 9102   3.557   3.772   0.561
 1964SOL     OW 9103   3.142   4.651   0.672
 1964SOL    HW1 9104   3.202   4.570   0.674
 1964SOL    HW2 9105   3.182   4.720   0.612
 1965SOL     OW 9106   3.703   3.899   0.963
 1965SOL    HW1 9107   3.742   3.814   0.927
 1965SOL    HW2 9108   3.605   3.901   0.944
 1966SOL     OW 9109   2.125   4.050   0.720
 1966SOL    HW1 9110   2.046   4.101   0.686
 1966SOL    HW2 9111   2.116   4.035   0.818
 1967SOL     OW 9112   2.684   4.726   1.372
 1967SOL    HW1 9113   2.724   4.725   1.280
 1967SOL    HW2 9114   2.694   4.818   1.412
 1968SOL     OW 9115   2.778   4.634   0.291
 1968SOL    HW1 9116   2.841   4.672   0.223
 1968SOL    HW2 9117   2.818   4.551   0.330
 1969SOL     OW 9118   2.234   5.012   1.490
 1969SOL    HW1 9119   2.221   5.105   1.456
 1969SOL    HW2 9120   2.150   4.960   1.477
 1970SOL     OW 9121   3.476   5.016   1.289
 1970SOL    HW1 9122   3.536   5.019   1.369
 1970SOL    HW2 9123   3.401   5.080   1.302
 1971SOL     OW 9124   2.901   4.822   0.696
 1971SOL    HW1 9125   2.831   4.775   0.750
 1971SOL    HW2 9126   2.960   4.754   0.653
 1972SOL     OW 9127   2.876   3.960   0.971
 1972SOL    HW1 9128   2.868   3.924   0.878
 1972SOL    HW2 9129   2.874   3.884   1.036
 1973SOL     OW 9130   3.571   4.109   1.381
 1973SOL    HW1 9131   3.644   4.178   1.385
 1973SOL    HW2 9132   3.599   4.034   1.322
 1974SOL     OW 9133   1.967   4.737   1.726
 1974SOL    HW1 9134   1.890   4.704   1.780
 1974SOL    HW2 9135   2.052   4.707   1.768
 1975SOL     OW 9136   1.934   3.890   0.318
 1975SOL    HW1 9137   1.917   3.973   0.264
 1975SOL    HW2 9138   2.024   3.853   0.296
 1976SOL     OW 9139   2.475   4.566   1.431
 1976SOL    HW1 9140   2.531   4.647   1.414
 1976SOL    HW2 9141   2.534   4.486   1.434
 1977SOL     OW 9142   3.312   4.944   1.633
 1977SOL    HW1 9143   3.303   4.934   1.732
 1977SOL    HW2 9144   3.408   4.937   1.607
 1978SOL     OW 9145   3.536   4.607   1.254
 1978SOL    HW1 9146   3.509   4.518   1.217
 1978SOL    HW2 9147   3.537   4.675   1.181
 1979SOL     OW 9148   3.087   4.049   0.449
 1979SOL    HW1 9149   3.152   3.975   0.438
 1979SOL    HW2 9150   3.107   4.099   0.533
 1980SOL     OW 9151   2.456   4.469   0.652
 1980SOL    HW1 9152   2.506   4.554   0.633
 1980SOL    HW2 9153   2.368   4.471   0.604
 1981SOL     OW 9154   3.639   4.066   1.642
 1981SOL    HW1 9155   3.622   4.097   1.548
 1981SOL    HW2 9156   3.555   4.029   1.680
 1982SOL     OW 9157   3.592   4.658   1.517
 1982SOL    HW1 9158   3.630   4.749   1.532
 1982SOL    HW2 9159   3.584   4.641   1.418
 1983SOL     OW 9160   2.721   4.680   0.861
 1983SOL    HW1 9161   2.775   4.611   0.909
 1983SOL    HW2 9162   2.689   4.749   0.927
 1984SOL     OW 9163   2.945   4.708   0.087
 1984SOL    HW1 9164   2.922   4.761   0.005
 1984SOL    HW2 9165   3.026   4.652   0.068
 1985SOL     OW 9166   1.941   4.964   0.653
 1985SOL    HW1 9167   1.940   4.917   0.741
 1985SOL    HW2 9168   2.023   4.936   0.602
 1986SOL     OW 9169   3.686   3.916   1.227
 1986SOL    HW1 9170   3.682   3.826   1.271
 1986SOL    HW2 9171   3.689   3.905   1.128
 1987SOL     OW 9172   2.290   4.148   0.520
 1987SOL    HW1 9173   2.320   4.076   0.458
 1987SOL    HW2 9174   2.251   4.108   0.603
 1988SOL     OW 9175   2.179   4.271   1.280
 1988SOL    HW1 9176   2.217   4.212   1.352
 1988SOL    HW2 9177   2.219   4.245   1.192
 1989SOL     OW 9178   3.286   3.938   1.112
 1989SOL    HW1 9179   3.338   3.873   1.167
 1989SOL    HW2 9180   3.237   4.001   1.173
 1990SOL     OW 9181   2.863   3.758   1.154
 1990SOL    HW1 9182   2.800   3.686   1.123
 1990SOL    HW2 9183   2.956   3.722   1.154
 1991SOL     OW 9184   2.632   5.054   0.301
 1991SOL    HW1 9185   2.586   4.967   0.318
 1991SOL    HW2 9186   2.723   5.051   0.342
 1992SOL     OW 9187   3.214   3.776   0.168
 1992SOL    HW1 9188   3.249   3.735   0.084
 1992SOL    HW2 9189   3.124   3.738   0.188
 1993SOL     OW 9190   2.092   4.352   1.975
 1993SOL    HW1 9191   1.999   4.350   2.012
 1993SOL    HW2 9192   2.093   4.313   1.883
 1994SOL     OW 9193   2.997   4.427   2.579
 1994SOL    HW1 9194   3.054   4.505   2.554
 1994SOL    HW2 9195   2.937   4.453   2.655
 1995SOL     OW 9196   3.617   4.331   2.093
 1995SOL    HW1 9197   3.605   4.318   1.994
 1995SOL    HW2 9198   3.587   4.250   2.142
 1996SOL     OW 9199   2.630   4.868   2.885
 1996SOL    HW1 9200   2.552   4.885   2.945
 1996SOL    HW2 9201   2.664   4.955   2.849
 1997SOL     OW 9202   2.712   4.522   3.685
 1997SOL    HW1 9203   2.708   4.598   3.750
 1997SOL    HW2 9204   2.734   4.558   3.594
 1998SOL     OW 9205   2.547   4.736   2.527
 1998SOL    HW1 9206   2.616   4.720   2.597
 1998SOL    HW2 9207   2.474   4.793   2.565
 1999SOL     OW 9208   2.548   4.885   3.665
 1999SOL    HW1 9209   2.608   4.964   3.679
 1999SOL    HW2 9210   2.462   4.916   3.624
 2000SOL     OW 9211   2.300   4.116   3.361
 2000SOL    HW1 9212   2.382   4.060   3.370
 2000SOL    HW2 9213   2.219   4.058   3.365
 2001SOL     OW 9214   3.465   4.171   2.599
 2001SOL    HW1 9215   3.391   4.217   2.549
 2001SOL    HW2 9216   3.516   4.239   2.652
 2002SOL     OW 9217   2.102   4.815   2.748
 2002SOL    HW1 9218   2.116   4.731   2.800
 2002SOL    HW2 9219   2.047   4.879   2.803
 2003SOL     OW 9220   2.468   4.688   1.985
 2003SOL    HW1 9221   2.475   4.772   1.931
 2003SOL    HW2 9222   2.514   4.701   2.073
 2004SOL     OW 9223   3.456   3.838   3.342
 2004SOL    HW1 9224   3.438   3.905   3.270
 2004SOL    HW2 9225   3.453   3.884   3.431
 2005SOL     OW 9226   1.984   4.367   2.425
 2005SOL    HW1 9227   1.939   4.279   2.442
 2005SOL    HW2 9228   1.983   4.421   2.509
 2006SOL     OW 9229   3.551   4.646   2.474
 2006SOL    HW1 9230   3.646   4.617   2.482
 2006SOL    HW2 9231   3.543   4.711   2.399
 2007SOL     OW 9232   3.503   4.832   2.294
 2007SOL    HW1 9233   3.589   4.834   2.242
 2007SOL    HW2 9234   3.517   4.879   2.382
 2008SOL     OW 9235   1.975   4.461   3.459
 2008SOL    HW1 9236   2.063   4.448   3.504
 2008SOL    HW2 9237   1.962   4.558   3.437
 2009SOL     OW 9238   3.155   4.952   3.285
 2009SOL    HW1 9239   3.192   4.879   3.227
 2009SOL    HW2 9240   3.207   4.957   3.370
 2010SOL     OW 9241   2.059   4.700   3.126
 2010SOL    HW1 9242   2.148   4.655   3.112
 2010SOL    HW2 9243   1.986   4.635   3.107
 2011SOL     OW 9244   3.387   4.723   2.052
 2011SOL    HW1 9245   3.324   4.647   2.065
 2011SOL    HW2 9246   3.435   4.741   2.138
 2012SOL     OW 9247   2.179   3.975   3.663
 2012SOL    HW1 9248   2.250   4.046   3.669
 2012SOL    HW2 9249   2.091   4.014   3.691
 2013SOL     OW 9250   2.460   4.453   2.132
 2013SOL    HW1 9251   2.484   4.522   2.064
 2013SOL    HW2 9252   2.382   4.486   2.186
 2014SOL     OW 9253   2.669   4.329   3.327
 2014SOL    HW1 9254   2.622   4.326   3.416
 2014SOL    HW2 9255   2.618   4.274   3.261
 2015SOL     OW 9256   3.256   4.193   3.536
 2015SOL    HW1 9257   3.236   4.236   3.624
 2015SOL    HW2 9258   3.334   4.131   3.545
 2016SOL     OW 9259   2.835   4.614   3.434
 2016SOL    HW1 9260   2.881   4.530   3.405
 2016SOL    HW2 9261   2.779   4.648   3.359
 2017SOL     OW 9262   2.903   4.425   2.291
 2017SOL    HW1 9263   2.929   4.421   2.387
 2017SOL    HW2 9264   2.818   4.374   2.277
 2018SOL     OW 9265   1.938   4.535   2.651
 2018SOL    HW1 9266   2.037   4.523   2.660
 2018SOL    HW2 9267   1.914   4.630   2.672
 2019SOL     OW 9268   3.581   4.309   3.693
 2019SOL    HW1 9269   3.555   4.398   3.657
 2019SOL    HW2 9270   3.579   4.241   3.620
 2020SOL     OW 9271   3.224   4.868   2.407
 2020SOL    HW1 9272   3.307   4.839   2.359
 2020SOL    HW2 9273   3.175   4.935   2.351
 2021SOL     OW 9274   3.657   4.790   2.735
 2021SOL    HW1 9275   3.595   4.775   2.659
 2021SOL    HW2 9276   3.605   4.801   2.820
 2022SOL     OW 9277   2.183   4.667   2.104
 2022SOL    HW1 9278   2.265   4.706   2.062
 2022SOL    HW2 9279   2.156   4.585   2.055
 2023SOL     OW 9280   3.320   4.459   2.590
 2023SOL    HW1 9281   3.315   4.394   2.665
 2023SOL    HW2 9282   3.400   4.518   2.603
 2024SOL     OW 9283   2.064   4.009   3.360
 2024SOL    HW1 9284   1.984   4.069   3.347
 2024SOL    HW2 9285   2.054   3.960   3.446
 2025SOL     OW 9286   3.409   3.946   3.591
 2025SOL    HW1 9287   3.404   3.983   3.683
 2025SOL    HW2 9288   3.337   3.877   3.579
 2026SOL     OW 9289   3.213   4.314   3.295
 2026SOL    HW1 9290   3.241   4.271   3.380
 2026SOL    HW2 9291   3.238   4.410   3.296
 2027SOL     OW 9292   2.938   4.407   3.326
 2027SOL    HW1 9293   2.858   4.346   3.329
 2027SOL    HW2 9294   3.019   4.354   3.302
 2028SOL     OW 9295   2.321   4.876   2.603
 2028SOL    HW1 9296   2.250   4.849   2.668
 2028SOL    HW2 9297   2.295   4.848   2.510
 2029SOL     OW 9298   2.894   4.273   1.878
 2029SOL    HW1 9299   2.853   4.355   1.839
 2029SOL    HW2 9300   2.958   4.299   1.951
 2030SOL     OW 9301   1.940   4.280   3.248
 2030SOL    HW1 9302   2.032   4.279   3.207
 2030SOL    HW2 9303   1.934   4.354   3.315
 2031SOL     OW 9304   3.291   4.897   2.729
 2031SOL    HW1 9305   3.236   4.813   2.722
 2031SOL    HW2 9306   3.317   4.926   2.637
 2032SOL     OW 9307   3.328   4.314   2.854
 2032SOL    HW1 9308   3.298   4.219   2.861
 2032SOL    HW2 9309   3.401   4.330   2.920
 2033SOL     OW 9310   3.719   4.557   2.239
 2033SOL    HW1 9311   3.761   4.493   2.303
 2033SOL    HW2 9312   3.681   4.506   2.161
 2034SOL     OW 9313   3.252   4.299   1.940
 2034SOL    HW1 9314   3.198   4.278   2.021
 2034SOL    HW2 9315   3.343   4.258   1.949
 2035SOL     OW 9316   3.616   4.947   3.450
 2035SOL    HW1 9317   3.707   4.908   3.437
 2035SOL    HW2 9318   3.624   5.043   3.474
 2036SOL     OW 9319   3.500   4.823   2.941
 2036SOL    HW1 9320   3.505   4.904   3.000
 2036SOL    HW2 9321   3.414   4.825   2.890
 2037SOL     OW 9322   2.842   4.840   3.581
 2037SOL    HW1 9323   2.743   4.846   3.591
 2037SOL    HW2 9324   2.865   4.760   3.525
 2038SOL     OW 9325   2.567   4.774   2.230
 2038SOL    HW1 9326   2.553   4.781   2.329
 2038SOL    HW2 9327   2.651   4.723   2.212
 2039SOL     OW 9328   2.272   4.537   3.113
 2039SOL    HW1 9329   2.358   4.549   3.163
 2039SOL    HW2 9330   2.230   4.450   3.140
 2040SOL     OW 9331   3.136   4.110   3.124
 2040SOL    HW1 9332   3.157   4.184   3.188
 2040SOL    HW2 9333   3.047   4.127   3.081
 2041SOL     OW 9334   2.229   4.824   2.363
 2041SOL    HW1 9335   2.222   4.907   2.307
 2041SOL    HW2 9336   2.233   4.744   2.303
 2042SOL     OW 9337   3.444   4.363   2.334
 2042SOL    HW1 9338   3.413   4.424   2.407
 2042SOL    HW2 9339   3.494   4.415   2.265
 2043SOL     OW 9340   2.264   4.475   3.460
 2043SOL    HW1 9341   2.332   4.530   3.413
 2043SOL    HW2 9342   2.304   4.387   3.487
 2044SOL     OW 9343   3.449   4.503   3.532
 2044SOL    HW1 9344   3.357   4.541   3.527
 2044SOL    HW2 9345   3.509   4.550   3.467
 2045SOL     OW 9346   2.875   3.829   3.632
 2045SOL    HW1 9347   2.881   3.914   3.580
 2045SOL    HW2 9348   2.907   3.753   3.575
 2046SOL     OW 9349   2.435   4.594   2.891
 2046SOL    HW1 9350   2.479   4.683   2.882
 2046SOL    HW2 9351   2.372   4.594   2.968
 2047SOL     OW 9352   3.222   4.586   2.907
 2047SOL    HW1 9353   3.147   4.586   2.841
 2047SOL    HW2 9354   3.259   4.494   2.916
 2048SOL     OW 9355   2.594   4.358   2.926
 2048SOL    HW1 9356   2.653   4.332   2.850
 2048SOL    HW2 9357   2.566   4.454   2.915
 2049SOL     OW 9358   3.590   4.659   3.716
 2049SOL    HW1 9359   3.544   4.652   3.627
 2049SOL    HW2 9360   3.528   4.703   3.782
 2050SOL     OW 9361   3.484   4.091   2.236
 2050SOL    HW1 9362   3.486   4.015   2.300
 2050SOL    HW2 9363   3.436   4.168   2.276
 2051SOL     OW 9364   2.885   4.490   2.828
 2051SOL    HW1 9365   2.900   4.511   2.924
 2051SOL    HW2 9366   2.855   4.395   2.819
 2052SOL     OW 9367   2.212   4.622   3.666
 2052SOL    HW1 9368   2.288   4.666   3.714
 2052SOL    HW2 9369   2.247   4.575   3.584
 2053SOL     OW 9370   3.165   4.562   1.904
 2053SOL    HW1 9371   3.199   4.469   1.919
 2053SOL    HW2 9372   3.183   4.589   1.809
 2054SOL     OW 9373   2.181   4.534   2.811
 2054SOL    HW1 9374   2.274   4.570   2.816
 2054SOL    HW2 9375   2.175   4.449   2.863
 2055SOL     OW 9376   3.000   4.104   3.540
 2055SOL    HW1 9377   2.955   4.167   3.604
 2055SOL    HW2 9378   3.093   4.135   3.523
 2056SOL     OW 9379   3.022   3.931   3.339
 2056SOL    HW1 9380   3.022   3.995   3.416
 2056SOL    HW2 9381   3.050   3.979   3.256
 2057SOL     OW 9382   1.870   5.050   2.062
 2057SOL    HW1 9383   1.777   5.071   2.031
 2057SOL    HW2 9384   1.880   4.951   2.075
 2058SOL     OW 9385   2.864   4.520   3.100
 2058SOL    HW1 9386   2.905   4.488   3.186
 2058SOL    HW2 9387   2.768   4.493   3.097
 2059SOL     OW 9388   2.051   4.244   3.584
 2059SOL    HW1 9389   2.110   4.204   3.514
 2059SOL    HW2 9390   1.993   4.315   3.543
 2060SOL     OW 9391   3.231   4.674   3.522
 2060SOL    HW1 9392   3.270   4.763   3.542
 2060SOL    HW2 9393   3.241   4.654   3.425
 2061SOL     OW 9394   3.519   4.328   3.068
 2061SOL    HW1 9395   3.481   4.259   3.130
 2061SOL    HW2 9396   3.601   4.292   3.024
 2062SOL     OW 9397   2.533   4.188   3.131
 2062SOL    HW1 9398   2.499   4.099   3.101
 2062SOL    HW2 9399   2.559   4.242   3.051
 2063SOL     OW 9400   2.021   4.861   3.328
 2063SOL    HW1 9401   2.043   4.800   3.404
 2063SOL    HW2 9402   2.031   4.812   3.242
 2064SOL     OW 9403   3.209   4.783   3.096
 2064SOL    HW1 9404   3.233   4.720   3.022
 2064SOL    HW2 9405   3.119   4.823   3.078
 2065SOL     OW 9406   3.164   4.579   2.171
 2065SOL    HW1 9407   3.078   4.548   2.213
 2065SOL    HW2 9408   3.160   4.565   2.072
 2066SOL     OW 9409   1.945   4.982   2.884
 2066SOL    HW1 9410   1.940   4.981   2.984
 2066SOL    HW2 9411   1.862   4.941   2.846
 2067SOL     OW 9412   3.142   4.651   2.534
 2067SOL    HW1 9413   3.202   4.570   2.536
 2067SOL    HW2 9414   3.182   4.720   2.474
 2068SOL     OW 9415   3.703   3.899   2.825
 2068SOL    HW1 9416   3.742   3.814   2.789
 2068SOL    HW2 9417   3.605   3.901   2.806
 2069SOL     OW 9418   2.684   4.726   3.234
 2069SOL    HW1 9419   2.724   4.725   3.142
 2069SOL    HW2 9420   2.694   4.818   3.274
 2070SOL     OW 9421   2.234   5.012   3.352
 2070SOL    HW1 9422   2.221   5.105   3.318
 2070SOL    HW2 9423   2.150   4.960   3.339
 2071SOL     OW 9424   3.476   5.016   3.151
 2071SOL    HW1 9425   3.536   5.019   3.231
 2071SOL    HW2 9426   3.401   5.080   3.164
 2072SOL     OW 9427   2.901   4.822   2.558
 2072SOL    HW1 9428   2.831   4.775   2.612
 2072SOL    HW2 9429   2.960   4.754   2.515
 2073SOL     OW 9430   3.571   4.109   3.243
 2073SOL    HW1 9431   3.644   4.178   3.247
 2073SOL    HW2 9432   3.599   4.034   3.184
 2074SOL     OW 9433   1.967   4.737   3.588
 2074SOL    HW1 9434   1.890   4.704   3.642
 2074SOL    HW2 9435   2.052   4.707   3.630
 2075SOL     OW 9436   1.937   4.069   1.895
 2075SOL    HW1 9437   1.845   4.041   1.866
 2075SOL    HW2 9438   1.968   4.146   1.839
 2076SOL     OW 9439   3.302   4.580   3.260
 2076SOL    HW1 9440   3.245   4.632   3.197
 2076SOL    HW2 9441   3.398   4.592   3.236
 2077SOL     OW 9442   2.475   4.566   3.293
 2077SOL    HW1 9443   2.531   4.647   3.276
 2077SOL    HW2 9444   2.534   4.486   3.296
 2078SOL     OW 9445   2.578   4.289   3.570
 2078SOL    HW1 9446   2.597   4.354   3.644
 2078SOL    HW2 9447   2.638   4.209   3.579
 2079SOL     OW 9448   3.312   4.944   3.495
 2079SOL    HW1 9449   3.303   4.934   3.594
 2079SOL    HW2 9450   3.408   4.937   3.469
 2080SOL     OW 9451   3.536   4.607   3.116
 2080SOL    HW1 9452   3.509   4.518   3.079
 2080SOL    HW2 9453   3.537   4.675   3.043
 2081SOL     OW 9454   3.087   4.049   2.311
 2081SOL    HW1 9455   3.152   3.975   2.300
 2081SOL    HW2 9456   3.107   4.099   2.395
 2082SOL     OW 9457   2.456   4.469   2.514
 2082SOL    HW1 9458   2.506   4.554   2.495
 2082SOL    HW2 9459   2.368   4.471   2.466
 2083SOL     OW 9460   3.639   4.066   3.504
 2083SOL    HW1 9461   3.622   4.097   3.410
 2083SOL    HW2 9462   3.555   4.029   3.542
 2084SOL     OW 9463   3.592   4.658   3.379
 2084SOL    HW1 9464   3.630   4.749   3.394
 2084SOL    HW2 9465   3.584   4.641   3.280
 2085SOL     OW 9466   2.721   4.680   2.723
 2085SOL    HW1 9467   2.775   4.611   2.771
 2085SOL    HW2 9468   2.689   4.749   2.789
 2086SOL     OW 9469   1.941   4.964   2.515
 2086SOL    HW1 9470   1.940   4.917   2.603
 2086SOL    HW2 9471   2.023   4.936   2.464
 2087SOL     OW 9472   3.686   3.916   3.089
 2087SOL    HW1 9473   3.682   3.826   3.133
 2087SOL    HW2 9474   3.689   3.905   2.990
 2088SOL     OW 9475   2.179   4.271   3.142
 2088SOL    HW1 9476   2.217   4.212   3.214
 2088SOL    HW2 9477   2.219   4.245   3.054
 2089SOL     OW 9478   2.632   5.054   2.163
 2089SOL    HW1 9479   2.586   4.967   2.180
 2089SOL    HW2 9480   2.723   5.051   2.204
 2090SOL     OW 9481   1.901   4.801   2.162
 2090SOL    HW1 9482   2.000   4.790   2.153
 2090SOL    HW2 9483   1.861   4.715   2.194
 2091SOL     OW 9484   2.092   4.352   3.837
 2091SOL    HW1 9485   1.999   4.350   3.874
 2091SOL    HW2 9486   2.093   4.313   3.745
 2092SOL     OW 9487   2.087   3.999   4.720
 2092SOL    HW1 9488   2.122   3.982   4.812
 2092SOL    HW2 9489   1.999   3.954   4.708
 2093SOL     OW 9490   1.881   4.092   4.371
 2093SOL    HW1 9491   1.799   4.135   4.410
 2093SOL    HW2 9492   1.853   4.019   4.308
 2094SOL     OW 9493   2.997   4.427   4.441
 2094SOL    HW1 9494   3.054   4.505   4.416
 2094SOL    HW2 9495   2.937   4.453   4.517
 2095SOL     OW 9496   3.617   4.331   3.955
 2095SOL    HW1 9497   3.605   4.318   3.856
 2095SOL    HW2 9498   3.587   4.250   4.004
 2096SOL     OW 9499   2.630   4.868   4.747
 2096SOL    HW1 9500   2.552   4.885   4.807
 2096SOL    HW2 9501   2.664   4.955   4.711
 2097SOL     OW 9502   2.547   4.736   4.389
 2097SOL    HW1 9503   2.616   4.720   4.459
 2097SOL    HW2 9504   2.474   4.793   4.427
 2098SOL     OW 9505   3.465   4.171   4.461
 2098SOL    HW1 9506   3.391   4.217   4.411
 2098SOL    HW2 9507   3.516   4.239   4.514
 2099SOL     OW 9508   2.102   4.815   4.610
 2099SOL    HW1 9509   2.116   4.731   4.662
 2099SOL    HW2 9510   2.047   4.879   4.665
 2100SOL     OW 9511   2.468   4.688   3.847
 2100SOL    HW1 9512   2.475   4.772   3.793
 2100SOL    HW2 9513   2.514   4.701   3.935
 2101SOL     OW 9514   1.984   4.367   4.287
 2101SOL    HW1 9515   1.939   4.279   4.304
 2101SOL    HW2 9516   1.983   4.421   4.371
 2102SOL     OW 9517   3.551   4.646   4.336
 2102SOL    HW1 9518   3.646   4.617   4.344
 2102SOL    HW2 9519   3.543   4.711   4.261
 2103SOL     OW 9520   3.503   4.832   4.156
 2103SOL    HW1 9521   3.589   4.834   4.104
 2103SOL    HW2 9522   3.517   4.879   4.244
 2104SOL     OW 9523   2.671   3.728   4.226
 2104SOL    HW1 9524   2.711   3.819   4.217
 2104SOL    HW2 9525   2.571   3.736   4.232
 2105SOL     OW 9526   2.059   4.700   4.988
 2105SOL    HW1 9527   2.148   4.655   4.974
 2105SOL    HW2 9528   1.986   4.635   4.969
 2106SOL     OW 9529   3.387   4.723   3.914
 2106SOL    HW1 9530   3.324   4.647   3.927
 2106SOL    HW2 9531   3.435   4.741   4.000
 2107SOL     OW 9532   2.460   4.453   3.994
 2107SOL    HW1 9533   2.484   4.522   3.926
 2107SOL    HW2 9534   2.382   4.486   4.048
 2108SOL     OW 9535   3.143   4.069   4.668
 2108SOL    HW1 9536   3.057   4.019   4.655
 2108SOL    HW2 9537   3.205   4.015   4.724
 2109SOL     OW 9538   2.903   4.425   4.153
 2109SOL    HW1 9539   2.929   4.421   4.249
 2109SOL    HW2 9540   2.818   4.374   4.139
 2110SOL     OW 9541   1.938   4.535   4.513
 2110SOL    HW1 9542   2.037   4.523   4.522
 2110SOL    HW2 9543   1.914   4.630   4.534
 2111SOL     OW 9544   2.727   4.072   3.919
 2111SOL    HW1 9545   2.786   4.135   3.870
 2111SOL    HW2 9546   2.746   3.978   3.890
 2112SOL     OW 9547   3.224   4.868   4.269
 2112SOL    HW1 9548   3.307   4.839   4.221
 2112SOL    HW2 9549   3.175   4.935   4.213
 2113SOL     OW 9550   3.657   4.790   4.597
 2113SOL    HW1 9551   3.595   4.775   4.521
 2113SOL    HW2 9552   3.605   4.801   4.682
 2114SOL     OW 9553   3.320   4.459   4.452
 2114SOL    HW1 9554   3.315   4.394   4.527
 2114SOL    HW2 9555   3.400   4.518   4.465
 2115SOL     OW 9556   3.262   3.831   4.150
 2115SOL    HW1 9557   3.238   3.794   4.060
 2115SOL    HW2 9558   3.361   3.847   4.154
 2116SOL     OW 9559   2.244   4.424   4.204
 2116SOL    HW1 9560   2.289   4.334   4.201
 2116SOL    HW2 9561   2.150   4.413   4.237
 2117SOL     OW 9562   2.784   4.227   4.623
 2117SOL    HW1 9563   2.759   4.218   4.527
 2117SOL    HW2 9564   2.832   4.145   4.654
 2118SOL     OW 9565   2.401   3.788   4.236
 2118SOL    HW1 9566   2.320   3.789   4.294
 2118SOL    HW2 9567   2.404   3.871   4.181
 2119SOL     OW 9568   2.159   3.759   3.895
 2119SOL    HW1 9569   2.208   3.843   3.874
 2119SOL    HW2 9570   2.221   3.694   3.940
 2120SOL     OW 9571   2.797   3.960   4.204
 2120SOL    HW1 9572   2.749   4.001   4.126
 2120SOL    HW2 9573   2.896   3.958   4.185
 2121SOL     OW 9574   2.321   4.876   4.465
 2121SOL    HW1 9575   2.250   4.849   4.530
 2121SOL    HW2 9576   2.295   4.848   4.372
 2122SOL     OW 9577   2.894   4.273   3.740
 2122SOL    HW1 9578   2.853   4.355   3.701
 2122SOL    HW2 9579   2.958   4.299   3.813
 2123SOL     OW 9580   2.728   4.178   4.366
 2123SOL    HW1 9581   2.696   4.250   4.304
 2123SOL    HW2 9582   2.752   4.097   4.313
 2124SOL     OW 9583   2.879   3.763   4.477
 2124SOL    HW1 9584   2.807   3.768   4.408
 2124SOL    HW2 9585   2.855   3.694   4.546
 2125SOL     OW 9586   3.291   4.897   4.591
 2125SOL    HW1 9587   3.236   4.813   4.584
 2125SOL    HW2 9588   3.317   4.926   4.499
 2126SOL     OW 9589   3.328   4.314   4.716
 2126SOL    HW1 9590   3.298   4.219   4.723
 2126SOL    HW2 9591   3.401   4.330   4.782
 2127SOL     OW 9592   3.719   4.557   4.101
 2127SOL    HW1 9593   3.761   4.493   4.165
 2127SOL    HW2 9594   3.681   4.506   4.023
 2128SOL     OW 9595   3.252   4.299   3.802
 2128SOL    HW1 9596   3.198   4.278   3.883
 2128SOL    HW2 9597   3.343   4.258   3.811
 2129SOL     OW 9598   2.389   3.980   4.052
 2129SOL    HW1 9599   2.416   3.921   3.977
 2129SOL    HW2 9600   2.389   4.075   4.021
 2130SOL     OW 9601   3.500   4.823   4.803
 2130SOL    HW1 9602   3.505   4.904   4.862
 2130SOL    HW2 9603   3.414   4.825   4.752
 2131SOL     OW 9604   2.567   4.774   4.092
 2131SOL    HW1 9605   2.553   4.781   4.191
 2131SOL    HW2 9606   2.651   4.723   4.074
 2132SOL     OW 9607   2.272   4.537   4.975
 2132SOL    HW1 9608   2.358   4.549   5.025
 2132SOL    HW2 9609   2.230   4.450   5.002
 2133SOL     OW 9610   2.229   4.824   4.225
 2133SOL    HW1 9611   2.222   4.907   4.169
 2133SOL    HW2 9612   2.233   4.744   4.165
 2134SOL     OW 9613   2.428   4.261   4.589
 2134SOL    HW1 9614   2.440   4.327   4.515
 2134SOL    HW2 9615   2.474   4.295   4.672
 2135SOL     OW 9616   3.444   4.363   4.196
 2135SOL    HW1 9617   3.413   4.424   4.269
 2135SOL    HW2 9618   3.494   4.415   4.127
 2136SOL     OW 9619   2.435   4.594   4.753
 2136SOL    HW1 9620   2.479   4.683   4.744
 2136SOL    HW2 9621   2.372   4.594   4.830
 2137SOL     OW 9622   3.222   4.586   4.769
 2137SOL    HW1 9623   3.147   4.586   4.703
 2137SOL    HW2 9624   3.259   4.494   4.778
 2138SOL     OW 9625   3.071   4.249   3.999
 2138SOL    HW1 9626   3.084   4.165   4.053
 2138SOL    HW2 9627   3.042   4.323   4.059
 2139SOL     OW 9628   2.169   3.937   4.955
 2139SOL    HW1 9629   2.146   3.974   5.045
 2139SOL    HW2 9630   2.139   3.842   4.949
 2140SOL     OW 9631   2.594   4.358   4.788
 2140SOL    HW1 9632   2.653   4.332   4.712
 2140SOL    HW2 9633   2.566   4.454   4.777
 2141SOL     OW 9634   2.169   3.787   4.342
 2141SOL    HW1 9635   2.158   3.881   4.375
 2141SOL    HW2 9636   2.164   3.724   4.419
 2142SOL     OW 9637   3.484   4.091   4.098
 2142SOL    HW1 9638   3.486   4.015   4.162
 2142SOL    HW2 9639   3.436   4.168   4.138
 2143SOL     OW 9640   2.885   4.490   4.690
 2143SOL    HW1 9641   2.900   4.511   4.786
 2143SOL    HW2 9642   2.855   4.395   4.681
 2144SOL     OW 9643   3.402   3.998   3.849
 2144SOL    HW1 9644   3.341   3.923   3.872
 2144SOL    HW2 9645   3.424   4.050   3.932
 2145SOL     OW 9646   3.165   4.562   3.766
 2145SOL    HW1 9647   3.199   4.469   3.781
 2145SOL    HW2 9648   3.183   4.589   3.671
 2146SOL     OW 9649   2.181   4.534   4.673
 2146SOL    HW1 9650   2.274   4.570   4.678
 2146SOL    HW2 9651   2.175   4.449   4.725
 2147SOL     OW 9652   2.201   4.233   4.730
 2147SOL    HW1 9653   2.149   4.150   4.713
 2147SOL    HW2 9654   2.278   4.238   4.666
 2148SOL     OW 9655   3.022   3.931   5.201
 2148SOL    HW1 9656   3.022   3.995   5.278
 2148SOL    HW2 9657   3.050   3.979   5.118
 2149SOL     OW 9658   2.864   4.520   4.962
 2149SOL    HW1 9659   2.905   4.488   5.048
 2149SOL    HW2 9660   2.768   4.493   4.959
 2150SOL     OW 9661   1.902   4.268   4.838
 2150SOL    HW1 9662   1.987   4.235   4.797
 2150SOL    HW2 9663   1.915   4.283   4.936
 2151SOL     OW 9664   2.677   4.296   4.049
 2151SOL    HW1 9665   2.684   4.207   4.003
 2151SOL    HW2 9666   2.583   4.330   4.041
 2152SOL     OW 9667   3.519   4.328   4.930
 2152SOL    HW1 9668   3.481   4.259   4.992
 2152SOL    HW2 9669   3.601   4.292   4.886
 2153SOL     OW 9670   2.533   4.188   4.993
 2153SOL    HW1 9671   2.499   4.099   4.963
 2153SOL    HW2 9672   2.559   4.242   4.913
 2154SOL     OW 9673   2.335   4.224   3.915
 2154SOL    HW1 9674   2.396   4.304   3.919
 2154SOL    HW2 9675   2.240   4.255   3.922
 2155SOL     OW 9676   2.021   4.861   5.190
 2155SOL    HW1 9677   2.043   4.800   5.266
 2155SOL    HW2 9678   2.031   4.812   5.104
 2156SOL     OW 9679   3.209   4.783   4.958
 2156SOL    HW1 9680   3.233   4.720   4.884
 2156SOL    HW2 9681   3.119   4.823   4.940
 2157SOL     OW 9682   3.164   4.579   4.033
 2157SOL    HW1 9683   3.078   4.548   4.075
 2157SOL    HW2 9684   3.160   4.565   3.934
 2158SOL     OW 9685   1.945   4.982   4.746
 2158SOL    HW1 9686   1.940   4.981   4.846
 2158SOL    HW2 9687   1.862   4.941   4.708
 2159SOL     OW 9688   3.588   3.859   4.247
 2159SOL    HW1 9689   3.661   3.842   4.180
 2159SOL    HW2 9690   3.557   3.772   4.285
 2160SOL     OW 9691   3.142   4.651   4.396
 2160SOL    HW1 9692   3.202   4.570   4.398
 2160SOL    HW2 9693   3.182   4.720   4.336
 2161SOL     OW 9694   3.703   3.899   4.687
 2161SOL    HW1 9695   3.742   3.814   4.651
 2161SOL    HW2 9696   3.605   3.901   4.668
 2162SOL     OW 9697   2.125   4.050   4.444
 2162SOL    HW1 9698   2.046   4.101   4.410
 2162SOL    HW2 9699   2.116   4.035   4.542
 2163SOL     OW 9700   2.684   4.726   5.096
 2163SOL    HW1 9701   2.724   4.725   5.004
 2163SOL    HW2 9702   2.694   4.818   5.136
 2164SOL     OW 9703   2.778   4.634   4.015
 2164SOL    HW1 9704   2.841   4.672   3.947
 2164SOL    HW2 9705   2.818   4.551   4.054
 2165SOL     OW 9706   3.476   5.016   5.013
 2165SOL    HW1 9707   3.536   5.019   5.093
 2165SOL    HW2 9708   3.401   5.080   5.026
 2166SOL     OW 9709   2.901   4.822   4.420
 2166SOL    HW1 9710   2.831   4.775   4.474
 2166SOL    HW2 9711   2.960   4.754   4.377
 2167SOL     OW 9712   2.876   3.960   4.695
 2167SOL    HW1 9713   2.868   3.924   4.602
 2167SOL    HW2 9714   2.874   3.884   4.760
 2168SOL     OW 9715   3.571   4.109   5.105
 2168SOL    HW1 9716   3.644   4.178   5.109
 2168SOL    HW2 9717   3.599   4.034   5.046
 2169SOL     OW 9718   1.937   4.069   3.757
 2169SOL    HW1 9719   1.845   4.041   3.728
 2169SOL    HW2 9720   1.968   4.146   3.701
 2170SOL     OW 9721   1.934   3.890   4.042
 2170SOL    HW1 9722   1.917   3.973   3.988
 2170SOL    HW2 9723   2.024   3.853   4.020
 2171SOL     OW 9724   3.536   4.607   4.978
 2171SOL    HW1 9725   3.509   4.518   4.941
 2171SOL    HW2 9726   3.537   4.675   4.905
 2172SOL     OW 9727   3.087   4.049   4.173
 2172SOL    HW1 9728   3.152   3.975   4.162
 2172SOL    HW2 9729   3.107   4.099   4.257
 2173SOL     OW 9730   2.456   4.469   4.376
 2173SOL    HW1 9731   2.506   4.554   4.357
 2173SOL    HW2 9732   2.368   4.471   4.328
 2174SOL     OW 9733   3.592   4.658   5.241
 2174SOL    HW1 9734   3.630   4.749   5.256
 2174SOL    HW2 9735   3.584   4.641   5.142
 2175SOL     OW 9736   2.721   4.680   4.585
 2175SOL    HW1 9737   2.775   4.611   4.633
 2175SOL    HW2 9738   2.689   4.749   4.651
 2176SOL     OW 9739   2.945   4.708   3.811
 2176SOL    HW1 9740   2.922   4.761   3.729
 2176SOL    HW2 9741   3.026   4.652   3.792
 2177SOL     OW 9742   1.941   4.964   4.377
 2177SOL    HW1 9743   1.940   4.917   4.465
 2177SOL    HW2 9744   2.023   4.936   4.326
 2178SOL     OW 9745   3.686   3.916   4.951
 2178SOL    HW1 9746   3.682   3.826   4.995
 2178SOL    HW2 9747   3.689   3.905   4.852
 2179SOL     OW 9748   2.290   4.148   4.244
 2179SOL    HW1 9749   2.320   4.076   4.182
 2179SOL    HW2 9750   2.251   4.108   4.327
 2180SOL     OW 9751   3.286   3.938   4.836
 2180SOL    HW1 9752   3.338   3.873   4.891
 2180SOL    HW2 9753   3.237   4.001   4.897
 2181SOL     OW 9754   2.863   3.758   4.878
 2181SOL    HW1 9755   2.800   3.686   4.847
 2181SOL    HW2 9756   2.956   3.722   4.878
 2182SOL     OW 9757   2.632   5.054   4.025
 2182SOL    HW1 9758   2.586   4.967   4.042
 2182SOL    HW2 9759   2.723   5.051   4.066
 2183SOL     OW 9760   3.214   3.776   3.892
 2183SOL    HW1 9761   3.249   3.735   3.808
 2183SOL    HW2 9762   3.124   3.738   3.912
 2184SOL     OW 9763   3.162   4.177   4.415
 2184SOL    HW1 9764   3.103   4.257   4.419
 2184SOL    HW2 9765   3.177   4.142   4.508
 2185SOL     OW 9766   3.455   3.945   4.606
 2185SOL    HW1 9767   3.371   3.944   4.660
 2185SOL    HW2 9768   3.457   4.028   4.550
 2186SOL     OW 9769   3.954   0.628   0.113
 2186SOL    HW1 9770   3.861   0.626   0.150
 2186SOL    HW2 9771   3.955   0.589   0.021
 2187SOL     OW 9772   3.949   0.275   0.996
 2187SOL    HW1 9773   3.984   0.258   1.088
 2187SOL    HW2 9774   3.861   0.230   0.984
 2188SOL     OW 9775   3.743   0.368   0.647
 2188SOL    HW1 9776   3.661   0.411   0.686
 2188SOL    HW2 9777   3.715   0.295   0.584
 2189SOL     OW 9778   4.293   1.275   1.165
 2189SOL    HW1 9779   4.200   1.268   1.128
 2189SOL    HW2 9780   4.304   1.364   1.209
 2190SOL     OW 9781   4.859   0.703   0.717
 2190SOL    HW1 9782   4.916   0.781   0.692
 2190SOL    HW2 9783   4.799   0.729   0.793
 2191SOL     OW 9784   4.492   1.144   1.023
 2191SOL    HW1 9785   4.414   1.161   1.083
 2191SOL    HW2 9786   4.526   1.231   0.987
 2192SOL     OW 9787   4.574   0.798   1.823
 2192SOL    HW1 9788   4.570   0.874   1.888
 2192SOL    HW2 9789   4.596   0.834   1.732
 2193SOL     OW 9790   4.409   1.012   0.665
 2193SOL    HW1 9791   4.478   0.996   0.735
 2193SOL    HW2 9792   4.336   1.069   0.703
 2194SOL     OW 9793   4.410   1.161   1.803
 2194SOL    HW1 9794   4.470   1.240   1.817
 2194SOL    HW2 9795   4.324   1.192   1.762
 2195SOL     OW 9796   4.059   1.435   1.061
 2195SOL    HW1 9797   3.981   1.404   1.008
 2195SOL    HW2 9798   4.117   1.493   1.004
 2196SOL     OW 9799   4.162   0.392   1.499
 2196SOL    HW1 9800   4.244   0.336   1.508
 2196SOL    HW2 9801   4.081   0.334   1.503
 2197SOL     OW 9802   3.955   1.713   0.483
 2197SOL    HW1 9803   3.989   1.790   0.537
 2197SOL    HW2 9804   3.999   1.713   0.393
 2198SOL     OW 9805   4.851   1.341   1.690
 2198SOL    HW1 9806   4.898   1.341   1.778
 2198SOL    HW2 9807   4.803   1.254   1.679
 2199SOL     OW 9808   3.954   1.434   0.538
 2199SOL    HW1 9809   3.928   1.530   0.538
 2199SOL    HW2 9810   3.883   1.380   0.583
 2200SOL     OW 9811   3.964   1.091   0.886
 2200SOL    HW1 9812   3.978   1.007   0.938
 2200SOL    HW2 9813   3.909   1.155   0.941
 2201SOL     OW 9814   4.344   1.786   1.439
 2201SOL    HW1 9815   4.252   1.769   1.474
 2201SOL    HW2 9816   4.372   1.878   1.465
 2202SOL     OW 9817   4.330   0.964   0.123
 2202SOL    HW1 9818   4.337   1.048   0.069
 2202SOL    HW2 9819   4.376   0.977   0.211
 2203SOL     OW 9820   3.846   0.643   0.563
 2203SOL    HW1 9821   3.801   0.555   0.580
 2203SOL    HW2 9822   3.845   0.697   0.647
 2204SOL     OW 9823   3.751   1.596   0.117
 2204SOL    HW1 9824   3.732   1.500   0.138
 2204SOL    HW2 9825   3.718   1.654   0.192
 2205SOL     OW 9826   3.837   0.737   1.597
 2205SOL    HW1 9827   3.925   0.724   1.642
 2205SOL    HW2 9828   3.824   0.834   1.575
 2206SOL     OW 9829   4.337   1.365   0.726
 2206SOL    HW1 9830   4.288   1.278   0.735
 2206SOL    HW2 9831   4.314   1.408   0.639
 2207SOL     OW 9832   4.533   0.004   0.502
 2207SOL    HW1 9833   4.573   0.095   0.493
 2207SOL    HW2 9834   4.433   0.012   0.508
 2208SOL     OW 9835   3.921   0.976   1.264
 2208SOL    HW1 9836   4.010   0.931   1.250
 2208SOL    HW2 9837   3.848   0.911   1.245
 2209SOL     OW 9838   4.041   0.251   1.801
 2209SOL    HW1 9839   4.112   0.322   1.807
 2209SOL    HW2 9840   3.953   0.290   1.829
 2210SOL     OW 9841   4.322   0.729   0.270
 2210SOL    HW1 9842   4.346   0.798   0.202
 2210SOL    HW2 9843   4.244   0.762   0.324
 2211SOL     OW 9844   4.531   0.605   1.465
 2211SOL    HW1 9845   4.484   0.602   1.554
 2211SOL    HW2 9846   4.480   0.550   1.399
 2212SOL     OW 9847   4.697   0.890   1.572
 2212SOL    HW1 9848   4.743   0.806   1.543
 2212SOL    HW2 9849   4.641   0.924   1.497
 2213SOL     OW 9850   4.715   0.410   1.242
 2213SOL    HW1 9851   4.638   0.444   1.296
 2213SOL    HW2 9852   4.681   0.359   1.163
 2214SOL     OW 9853   4.765   0.701   0.429
 2214SOL    HW1 9854   4.791   0.697   0.525
 2214SOL    HW2 9855   4.680   0.650   0.415
 2215SOL     OW 9856   3.800   0.811   0.789
 2215SOL    HW1 9857   3.899   0.799   0.798
 2215SOL    HW2 9858   3.776   0.906   0.810
 2216SOL     OW 9859   4.589   0.348   0.195
 2216SOL    HW1 9860   4.648   0.411   0.146
 2216SOL    HW2 9861   4.608   0.254   0.166
 2217SOL     OW 9862   4.274   0.196   0.885
 2217SOL    HW1 9863   4.269   0.191   0.985
 2217SOL    HW2 9864   4.276   0.292   0.856
 2218SOL     OW 9865   4.732   1.456   0.477
 2218SOL    HW1 9866   4.686   1.528   0.425
 2218SOL    HW2 9867   4.728   1.476   0.575
 2219SOL     OW 9868   4.075   1.801   0.853
 2219SOL    HW1 9869   4.125   1.715   0.859
 2219SOL    HW2 9870   4.140   1.878   0.850
 2220SOL     OW 9871   4.951   1.550   1.506
 2220SOL    HW1 9872   4.957   1.473   1.570
 2220SOL    HW2 9873   4.899   1.524   1.426
 2221SOL     OW 9874   4.045   0.943   0.242
 2221SOL    HW1 9875   4.127   0.982   0.200
 2221SOL    HW2 9876   4.018   0.861   0.193
 2222SOL     OW 9877   4.185   1.266   1.727
 2222SOL    HW1 9878   4.135   1.267   1.641
 2222SOL    HW2 9879   4.122   1.248   1.803
 2223SOL     OW 9880   4.835   1.776   0.237
 2223SOL    HW1 9881   4.775   1.714   0.287
 2223SOL    HW2 9882   4.866   1.732   0.152
 2224SOL     OW 9883   3.926   0.285   1.498
 2224SOL    HW1 9884   3.846   0.345   1.485
 2224SOL    HW2 9885   3.916   0.236   1.584
 2225SOL     OW 9886   4.188   1.743   0.323
 2225SOL    HW1 9887   4.221   1.782   0.409
 2225SOL    HW2 9888   4.264   1.736   0.258
 2226SOL     OW 9889   3.973   1.785   1.241
 2226SOL    HW1 9890   4.030   1.720   1.291
 2226SOL    HW2 9891   3.957   1.752   1.148
 2227SOL     OW 9892   4.664   1.698   0.904
 2227SOL    HW1 9893   4.744   1.641   0.925
 2227SOL    HW2 9894   4.615   1.658   0.827
 2228SOL     OW 9895   4.106   0.700   0.480
 2228SOL    HW1 9896   4.151   0.610   0.477
 2228SOL    HW2 9897   4.012   0.689   0.513
 2229SOL     OW 9898   4.338   0.122   0.117
 2229SOL    HW1 9899   4.436   0.100   0.124
 2229SOL    HW2 9900   4.307   0.105   0.024
 2230SOL     OW 9901   4.505   0.264   1.749
 2230SOL    HW1 9902   4.572   0.203   1.792
 2230SOL    HW2 9903   4.432   0.283   1.814
 2231SOL     OW 9904   4.612   1.514   1.195
 2231SOL    HW1 9905   4.589   1.489   1.101
 2231SOL    HW2 9906   4.673   1.445   1.234
 2232SOL     OW 9907   4.527   1.402   0.924
 2232SOL    HW1 9908   4.617   1.416   0.882
 2232SOL    HW2 9909   4.456   1.404   0.853
 2233SOL     OW 9910   4.646   0.503   0.899
 2233SOL    HW1 9911   4.621   0.494   0.803
 2233SOL    HW2 9912   4.694   0.421   0.930
 2234SOL     OW 9913   4.263   0.064   0.512
 2234SOL    HW1 9914   4.182   0.065   0.570
 2234SOL    HW2 9915   4.266   0.147   0.457
 2235SOL     OW 9916   4.021   0.035   0.171
 2235SOL    HW1 9917   4.070   0.119   0.150
 2235SOL    HW2 9918   4.083  -0.030   0.216
 2236SOL     OW 9919   4.659   0.236   0.480
 2236SOL    HW1 9920   4.611   0.277   0.402
 2236SOL    HW2 9921   4.758   0.234   0.461
 2237SOL     OW 9922   4.800   0.683   1.464
 2237SOL    HW1 9923   4.720   0.622   1.467
 2237SOL    HW2 9924   4.881   0.630   1.440
 2238SOL     OW 9925   4.951   1.570   0.793
 2238SOL    HW1 9926   4.972   1.644   0.728
 2238SOL    HW2 9927   5.019   1.570   0.866
 2239SOL     OW 9928   4.183   1.152   0.741
 2239SOL    HW1 9929   4.112   1.125   0.806
 2239SOL    HW2 9930   4.157   1.124   0.648
 2240SOL     OW 9931   4.995   1.797   0.591
 2240SOL    HW1 9932   5.039   1.861   0.527
 2240SOL    HW2 9933   4.945   1.849   0.661
 2241SOL     OW 9934   4.756   0.549   0.016
 2241SOL    HW1 9935   4.715   0.631  -0.023
 2241SOL    HW2 9936   4.820   0.575   0.089
 2242SOL     OW 9937   3.802   0.556   1.386
 2242SOL    HW1 9938   3.894   0.555   1.345
 2242SOL    HW2 9939   3.796   0.630   1.453
 2243SOL     OW 9940   4.285   0.222   1.147
 2243SOL    HW1 9941   4.323   0.138   1.184
 2243SOL    HW2 9942   4.197   0.241   1.191
 2244SOL     OW 9943   4.590   0.454   0.642
 2244SOL    HW1 9944   4.558   0.526   0.580
 2244SOL    HW2 9945   4.614   0.373   0.589
 2245SOL     OW 9946   4.741   0.039   0.753
 2245SOL    HW1 9947   4.669   0.044   0.684
 2245SOL    HW2 9948   4.717  -0.030   0.822
 2246SOL     OW 9949   4.212   1.385   0.174
 2246SOL    HW1 9950   4.125   1.370   0.221
 2246SOL    HW2 9951   4.195   1.411   0.079
 2247SOL     OW 9952   4.251   0.256   0.328
 2247SOL    HW1 9953   4.278   0.197   0.253
 2247SOL    HW2 9954   4.251   0.351   0.297
 2248SOL     OW 9955   4.788   1.347   1.340
 2248SOL    HW1 9956   4.708   1.324   1.395
 2248SOL    HW2 9957   4.871   1.321   1.389
 2249SOL     OW 9958   4.835   1.195   1.100
 2249SOL    HW1 9959   4.795   1.239   1.181
 2249SOL    HW2 9960   4.794   1.232   1.017
 2250SOL     OW 9961   4.639   0.089   1.402
 2250SOL    HW1 9962   4.664   0.069   1.307
 2250SOL    HW2 9963   4.711   0.145   1.444
 2251SOL     OW 9964   4.704   1.116   1.719
 2251SOL    HW1 9965   4.605   1.122   1.729
 2251SOL    HW2 9966   4.727   1.036   1.663
 2252SOL     OW 9967   4.429   1.050   0.368
 2252SOL    HW1 9968   4.415   1.057   0.467
 2252SOL    HW2 9969   4.513   0.999   0.350
 2253SOL     OW 9970   4.134   0.813   1.251
 2253SOL    HW1 9971   4.220   0.825   1.301
 2253SOL    HW2 9972   4.092   0.726   1.278
 2254SOL     OW 9973   3.788   1.564   1.331
 2254SOL    HW1 9974   3.742   1.646   1.297
 2254SOL    HW2 9975   3.886   1.583   1.340
 2255SOL     OW 9976   4.091   1.100   0.501
 2255SOL    HW1 9977   4.084   1.183   0.445
 2255SOL    HW2 9978   4.095   1.020   0.441
 2256SOL     OW 9979   4.290   0.537   0.865
 2256SOL    HW1 9980   4.302   0.603   0.791
 2256SOL    HW2 9981   4.336   0.571   0.948
 2257SOL     OW 9982   4.976   1.348   0.388
 2257SOL    HW1 9983   5.026   1.425   0.428
 2257SOL    HW2 9984   4.881   1.350   0.420
 2258SOL     OW 9985   4.078   1.510   1.329
 2258SOL    HW1 9986   4.057   1.466   1.242
 2258SOL    HW2 9987   4.175   1.536   1.332
 2259SOL     OW 9988   4.126   0.751   1.598
 2259SOL    HW1 9989   4.194   0.806   1.551
 2259SOL    HW2 9990   4.166   0.663   1.625
 2260SOL     OW 9991   4.737   0.105   1.770
 2260SOL    HW1 9992   4.743   0.190   1.718
 2260SOL    HW2 9993   4.769   0.029   1.713
 2261SOL     OW 9994   4.228   0.050   1.740
 2261SOL    HW1 9995   4.186  -0.007   1.670
 2261SOL    HW2 9996   4.162   0.119   1.772
 2262SOL     OW 9997   4.297   0.870   1.029
 2262SOL    HW1 9998   4.341   0.959   1.020
 2262SOL    HW2 9999   4.234   0.870   1.106
 2263SOL     OW10000   5.084   0.862   1.045
 2263SOL    HW110001   5.009   0.862   0.979
 2263SOL    HW210002   5.121   0.770   1.054
 2264SOL     OW10003   4.933   0.525   0.275
 2264SOL    HW110004   4.946   0.441   0.329
 2264SOL    HW210005   4.904   0.599   0.335
 2265SOL     OW10006   4.031   0.213   1.231
 2265SOL    HW110007   4.008   0.250   1.321
 2265SOL    HW210008   4.001   0.118   1.225
 2266SOL     OW10009   4.456   0.634   1.064
 2266SOL    HW110010   4.515   0.608   0.988
 2266SOL    HW210011   4.428   0.730   1.053
 2267SOL     OW10012   4.031   0.063   0.618
 2267SOL    HW110013   4.020   0.157   0.651
 2267SOL    HW210014   4.026   0.000   0.695
 2268SOL     OW10015   4.747   0.766   0.966
 2268SOL    HW110016   4.762   0.787   1.062
 2268SOL    HW210017   4.717   0.671   0.957
 2269SOL     OW10018   4.704   1.573   1.700
 2269SOL    HW110019   4.684   1.617   1.612
 2269SOL    HW210020   4.743   1.482   1.684
 2270SOL     OW10021   4.074   0.898   1.804
 2270SOL    HW110022   4.150   0.942   1.852
 2270SOL    HW210023   4.109   0.851   1.722
 2271SOL     OW10024   4.792   1.333   0.849
 2271SOL    HW110025   4.799   1.249   0.794
 2271SOL    HW210026   4.854   1.402   0.813
 2272SOL     OW10027   4.043   0.810   0.949
 2272SOL    HW110028   4.136   0.846   0.954
 2272SOL    HW210029   4.037   0.725   1.001
 2273SOL     OW10030   4.063   0.509   1.006
 2273SOL    HW110031   4.011   0.426   0.989
 2273SOL    HW210032   4.140   0.514   0.942
 2274SOL     OW10033   4.862   0.380   1.678
 2274SOL    HW110034   4.817   0.443   1.742
 2274SOL    HW210035   4.955   0.411   1.661
 2275SOL     OW10036   4.884   0.207   1.477
 2275SOL    HW110037   4.884   0.271   1.554
 2275SOL    HW210038   4.912   0.255   1.394
 2276SOL     OW10039   3.732   1.326   0.200
 2276SOL    HW110040   3.639   1.347   0.169
 2276SOL    HW210041   3.742   1.227   0.213
 2277SOL     OW10042   3.812   1.801   0.927
 2277SOL    HW110043   3.770   1.715   0.900
 2277SOL    HW210044   3.906   1.804   0.893
 2278SOL     OW10045   4.228   1.568   0.910
 2278SOL    HW110046   4.294   1.642   0.919
 2278SOL    HW210047   4.272   1.489   0.868
 2279SOL     OW10048   4.726   0.796   1.238
 2279SOL    HW110049   4.767   0.764   1.324
 2279SOL    HW210050   4.630   0.769   1.235
 2280SOL     OW10051   3.764   0.544   1.114
 2280SOL    HW110052   3.849   0.511   1.073
 2280SOL    HW210053   3.777   0.559   1.212
 2281SOL     OW10054   3.913   0.520   1.722
 2281SOL    HW110055   3.972   0.480   1.652
 2281SOL    HW210056   3.855   0.591   1.681
 2282SOL     OW10057   4.539   0.572   0.325
 2282SOL    HW110058   4.546   0.483   0.279
 2282SOL    HW210059   4.445   0.606   0.317
 2283SOL     OW10060   3.976   1.564   1.744
 2283SOL    HW110061   3.946   1.621   1.820
 2283SOL    HW210062   3.969   1.467   1.770
 2284SOL     OW10063   4.395   0.464   1.269
 2284SOL    HW110064   4.361   0.375   1.239
 2284SOL    HW210065   4.421   0.518   1.189
 2285SOL     OW10066   4.654   1.678   1.465
 2285SOL    HW110067   4.630   1.660   1.370
 2285SOL    HW210068   4.684   1.772   1.475
 2286SOL     OW10069   4.197   0.500   0.191
 2286SOL    HW110070   4.258   0.580   0.195
 2286SOL    HW210071   4.102   0.531   0.198
 2287SOL     OW10072   3.883   1.137   1.466
 2287SOL    HW110073   3.905   1.076   1.542
 2287SOL    HW210074   3.893   1.088   1.380
 2288SOL     OW10075   4.976   1.731   1.128
 2288SOL    HW110076   5.060   1.736   1.074
 2288SOL    HW210077   4.953   1.635   1.146
 2289SOL     OW10078   4.412   1.662   1.716
 2289SOL    HW110079   4.356   1.743   1.725
 2289SOL    HW210080   4.464   1.666   1.630
 2290SOL     OW10081   4.627   0.086   0.133
 2290SOL    HW110082   4.678   0.087   0.047
 2290SOL    HW210083   4.683   0.044   0.204
 2291SOL     OW10084   3.854   1.794   1.851
 2291SOL    HW110085   3.813   1.720   1.904
 2291SOL    HW210086   3.918   1.845   1.909
 2292SOL     OW10087   4.554   1.273   1.422
 2292SOL    HW110088   4.549   1.306   1.517
 2292SOL    HW210089   4.468   1.292   1.376
 2293SOL     OW10090   4.396   1.616   0.154
 2293SOL    HW110091   4.405   1.626   0.055
 2293SOL    HW210092   4.356   1.527   0.175
 2294SOL     OW10093   3.987   0.326   0.720
 2294SOL    HW110094   3.908   0.377   0.686
 2294SOL    HW210095   3.978   0.311   0.818
 2295SOL     OW10096   4.546   1.002   1.372
 2295SOL    HW110097   4.586   1.001   1.280
 2295SOL    HW210098   4.556   1.094   1.412
 2296SOL     OW10099   4.640   0.910   0.291
 2296SOL    HW110100   4.703   0.948   0.223
 2296SOL    HW210101   4.680   0.827   0.330
 2297SOL     OW10102   4.096   1.288   1.490
 2297SOL    HW110103   4.083   1.381   1.456
 2297SOL    HW210104   4.012   1.236   1.477
 2298SOL     OW10105   4.763   1.098   0.696
 2298SOL    HW110106   4.693   1.051   0.750
 2298SOL    HW210107   4.822   1.030   0.653
 2299SOL     OW10108   4.738   0.236   0.971
 2299SOL    HW110109   4.730   0.200   0.878
 2299SOL    HW210110   4.736   0.160   1.036
 2300SOL     OW10111   4.314   1.487   0.491
 2300SOL    HW110112   4.356   1.429   0.421
 2300SOL    HW210113   4.270   1.566   0.447
 2301SOL     OW10114   3.979   1.348   0.290
 2301SOL    HW110115   3.883   1.349   0.263
 2301SOL    HW210116   3.991   1.401   0.374
 2302SOL     OW10117   3.829   1.013   1.726
 2302SOL    HW110118   3.752   0.980   1.780
 2302SOL    HW210119   3.914   0.983   1.768
 2303SOL     OW10120   4.396   0.203   1.489
 2303SOL    HW110121   4.486   0.187   1.449
 2303SOL    HW210122   4.404   0.208   1.588
 2304SOL     OW10123   3.796   0.166   0.318
 2304SOL    HW110124   3.779   0.249   0.264
 2304SOL    HW210125   3.886   0.129   0.296
 2305SOL     OW10126   4.337   0.842   1.431
 2305SOL    HW110127   4.393   0.923   1.414
 2305SOL    HW210128   4.396   0.762   1.434
 2306SOL     OW10129   4.440   0.565   1.708
 2306SOL    HW110130   4.459   0.630   1.782
 2306SOL    HW210131   4.500   0.485   1.717
 2307SOL     OW10132   4.114   1.741   1.560
 2307SOL    HW110133   4.023   1.782   1.558
 2307SOL    HW210134   4.107   1.647   1.592
 2308SOL     OW10135   4.318   0.745   0.652
 2308SOL    HW110136   4.368   0.830   0.633
 2308SOL    HW210137   4.230   0.747   0.604
 2309SOL     OW10138   4.583   1.374   0.016
 2309SOL    HW110139   4.537   1.389   0.104
 2309SOL    HW210140   4.627   1.459  -0.014
 2310SOL     OW10141   4.385   1.790   0.953
 2310SOL    HW110142   4.339   1.878   0.940
 2310SOL    HW210143   4.484   1.802   0.946
 2311SOL     OW10144   4.583   0.956   0.861
 2311SOL    HW110145   4.637   0.887   0.909
 2311SOL    HW210146   4.551   1.025   0.927
 2312SOL     OW10147   4.807   0.984   0.087
 2312SOL    HW110148   4.784   1.037   0.005
 2312SOL    HW210149   4.888   0.928   0.068
 2313SOL     OW10150   3.945   1.314   1.844
 2313SOL    HW110151   3.880   1.241   1.823
 2313SOL    HW210152   3.949   1.328   1.942
 2314SOL     OW10153   3.803   1.240   0.653
 2314SOL    HW110154   3.802   1.193   0.741
 2314SOL    HW210155   3.885   1.212   0.602
 2315SOL     OW10156   4.396   1.391   1.624
 2315SOL    HW110157   4.318   1.341   1.662
 2315SOL    HW210158   4.393   1.486   1.655
 2316SOL     OW10159   4.152   0.424   0.520
 2316SOL    HW110160   4.182   0.352   0.458
 2316SOL    HW210161   4.113   0.384   0.603
 2317SOL     OW10162   4.041   0.547   1.280
 2317SOL    HW110163   4.079   0.488   1.352
 2317SOL    HW210164   4.081   0.521   1.192
 2318SOL     OW10165   4.536   1.586   0.687
 2318SOL    HW110166   4.568   1.596   0.593
 2318SOL    HW210167   4.457   1.524   0.689
 2319SOL     OW10168   4.494   1.330   0.301
 2319SOL    HW110169   4.448   1.243   0.318
 2319SOL    HW210170   4.585   1.327   0.342
 2320SOL     OW10171   4.342   1.567   1.284
 2320SOL    HW110172   4.337   1.649   1.341
 2320SOL    HW210173   4.431   1.564   1.239
 2321SOL     OW10174   4.599   1.646   0.337
 2321SOL    HW110175   4.522   1.611   0.283
 2321SOL    HW210176   4.567   1.717   0.399
 2322SOL     OW10177   3.954   0.628   1.975
 2322SOL    HW110178   3.861   0.626   2.012
 2322SOL    HW210179   3.955   0.589   1.883
 2323SOL     OW10180   3.949   0.275   2.858
 2323SOL    HW110181   3.984   0.258   2.950
 2323SOL    HW210182   3.861   0.230   2.846
 2324SOL     OW10183   3.743   0.368   2.509
 2324SOL    HW110184   3.661   0.411   2.548
 2324SOL    HW210185   3.715   0.295   2.446
 2325SOL     OW10186   4.293   1.275   3.027
 2325SOL    HW110187   4.200   1.268   2.990
 2325SOL    HW210188   4.304   1.364   3.071
 2326SOL     OW10189   4.859   0.703   2.579
 2326SOL    HW110190   4.916   0.781   2.554
 2326SOL    HW210191   4.799   0.729   2.655
 2327SOL     OW10192   4.492   1.144   2.885
 2327SOL    HW110193   4.414   1.161   2.945
 2327SOL    HW210194   4.526   1.231   2.849
 2328SOL     OW10195   4.574   0.798   3.685
 2328SOL    HW110196   4.570   0.874   3.750
 2328SOL    HW210197   4.596   0.834   3.594
 2329SOL     OW10198   4.409   1.012   2.527
 2329SOL    HW110199   4.478   0.996   2.597
 2329SOL    HW210200   4.336   1.069   2.565
 2330SOL     OW10201   4.410   1.161   3.665
 2330SOL    HW110202   4.470   1.240   3.679
 2330SOL    HW210203   4.324   1.192   3.624
 2331SOL     OW10204   4.162   0.392   3.361
 2331SOL    HW110205   4.244   0.336   3.370
 2331SOL    HW210206   4.081   0.334   3.365
 2332SOL     OW10207   4.851   1.341   3.552
 2332SOL    HW110208   4.898   1.341   3.640
 2332SOL    HW210209   4.803   1.254   3.541
 2333SOL     OW10210   3.964   1.091   2.748
 2333SOL    HW110211   3.978   1.007   2.800
 2333SOL    HW210212   3.909   1.155   2.803
 2334SOL     OW10213   4.344   1.786   3.301
 2334SOL    HW110214   4.252   1.769   3.336
 2334SOL    HW210215   4.372   1.878   3.327
 2335SOL     OW10216   4.330   0.964   1.985
 2335SOL    HW110217   4.337   1.048   1.931
 2335SOL    HW210218   4.376   0.977   2.073
 2336SOL     OW10219   3.846   0.643   2.425
 2336SOL    HW110220   3.801   0.555   2.442
 2336SOL    HW210221   3.845   0.697   2.509
 2337SOL     OW10222   3.837   0.737   3.459
 2337SOL    HW110223   3.925   0.724   3.504
 2337SOL    HW210224   3.824   0.834   3.437
 2338SOL     OW10225   4.337   1.365   2.588
 2338SOL    HW110226   4.288   1.278   2.597
 2338SOL    HW210227   4.314   1.408   2.501
 2339SOL     OW10228   4.533   0.004   2.364
 2339SOL    HW110229   4.573   0.095   2.355
 2339SOL    HW210230   4.433   0.012   2.370
 2340SOL     OW10231   3.921   0.976   3.126
 2340SOL    HW110232   4.010   0.931   3.112
 2340SOL    HW210233   3.848   0.911   3.107
 2341SOL     OW10234   4.322   0.729   2.132
 2341SOL    HW110235   4.346   0.798   2.064
 2341SOL    HW210236   4.244   0.762   2.186
 2342SOL     OW10237   4.531   0.605   3.327
 2342SOL    HW110238   4.484   0.602   3.416
 2342SOL    HW210239   4.480   0.550   3.261
 2343SOL     OW10240   4.697   0.890   3.434
 2343SOL    HW110241   4.743   0.806   3.405
 2343SOL    HW210242   4.641   0.924   3.359
 2344SOL     OW10243   4.715   0.410   3.104
 2344SOL    HW110244   4.638   0.444   3.158
 2344SOL    HW210245   4.681   0.359   3.025
 2345SOL     OW10246   4.765   0.701   2.291
 2345SOL    HW110247   4.791   0.697   2.387
 2345SOL    HW210248   4.680   0.650   2.277
 2346SOL     OW10249   3.800   0.811   2.651
 2346SOL    HW110250   3.899   0.799   2.660
 2346SOL    HW210251   3.776   0.906   2.672
 2347SOL     OW10252   3.854   1.821   3.433
 2347SOL    HW110253   3.844   1.806   3.532
 2347SOL    HW210254   3.768   1.857   3.397
 2348SOL     OW10255   4.589   0.348   2.057
 2348SOL    HW110256   4.648   0.411   2.008
 2348SOL    HW210257   4.608   0.254   2.028
 2349SOL     OW10258   4.274   0.196   2.747
 2349SOL    HW110259   4.269   0.191   2.847
 2349SOL    HW210260   4.276   0.292   2.718
 2350SOL     OW10261   4.732   1.456   2.339
 2350SOL    HW110262   4.686   1.528   2.287
 2350SOL    HW210263   4.728   1.476   2.437
 2351SOL     OW10264   4.075   1.801   2.715
 2351SOL    HW110265   4.125   1.715   2.721
 2351SOL    HW210266   4.140   1.878   2.712
 2352SOL     OW10267   4.951   1.550   3.368
 2352SOL    HW110268   4.957   1.473   3.432
 2352SOL    HW210269   4.899   1.524   3.288
 2353SOL     OW10270   4.045   0.943   2.104
 2353SOL    HW110271   4.127   0.982   2.062
 2353SOL    HW210272   4.018   0.861   2.055
 2354SOL     OW10273   4.185   1.266   3.589
 2354SOL    HW110274   4.135   1.267   3.503
 2354SOL    HW210275   4.122   1.248   3.665
 2355SOL     OW10276   4.835   1.776   2.099
 2355SOL    HW110277   4.775   1.714   2.149
 2355SOL    HW210278   4.866   1.732   2.014
 2356SOL     OW10279   4.188   1.743   2.185
 2356SOL    HW110280   4.221   1.782   2.271
 2356SOL    HW210281   4.264   1.736   2.120
 2357SOL     OW10282   3.973   1.785   3.103
 2357SOL    HW110283   4.030   1.720   3.153
 2357SOL    HW210284   3.957   1.752   3.010
 2358SOL     OW10285   4.664   1.698   2.766
 2358SOL    HW110286   4.744   1.641   2.787
 2358SOL    HW210287   4.615   1.658   2.689
 2359SOL     OW10288   4.106   0.700   2.342
 2359SOL    HW110289   4.151   0.610   2.339
 2359SOL    HW210290   4.012   0.689   2.375
 2360SOL     OW10291   4.338   0.122   1.979
 2360SOL    HW110292   4.436   0.100   1.986
 2360SOL    HW210293   4.307   0.105   1.886
 2361SOL     OW10294   4.612   1.514   3.057
 2361SOL    HW110295   4.589   1.489   2.963
 2361SOL    HW210296   4.673   1.445   3.096
 2362SOL     OW10297   4.527   1.402   2.786
 2362SOL    HW110298   4.617   1.416   2.744
 2362SOL    HW210299   4.456   1.404   2.715
 2363SOL     OW10300   4.646   0.503   2.761
 2363SOL    HW110301   4.621   0.494   2.665
 2363SOL    HW210302   4.694   0.421   2.792
 2364SOL     OW10303   4.263   0.064   2.374
 2364SOL    HW110304   4.182   0.065   2.432
 2364SOL    HW210305   4.266   0.147   2.319
 2365SOL     OW10306   4.021   0.035   2.033
 2365SOL    HW110307   4.070   0.119   2.012
 2365SOL    HW210308   4.083  -0.030   2.078
 2366SOL     OW10309   4.659   0.236   2.342
 2366SOL    HW110310   4.611   0.277   2.264
 2366SOL    HW210311   4.758   0.234   2.323
 2367SOL     OW10312   4.800   0.683   3.326
 2367SOL    HW110313   4.720   0.622   3.329
 2367SOL    HW210314   4.881   0.630   3.302
 2368SOL     OW10315   4.951   1.570   2.655
 2368SOL    HW110316   4.972   1.644   2.590
 2368SOL    HW210317   5.019   1.570   2.728
 2369SOL     OW10318   4.183   1.152   2.603
 2369SOL    HW110319   4.112   1.125   2.668
 2369SOL    HW210320   4.157   1.124   2.510
 2370SOL     OW10321   4.995   1.797   2.453
 2370SOL    HW110322   5.039   1.861   2.389
 2370SOL    HW210323   4.945   1.849   2.523
 2371SOL     OW10324   4.756   0.549   1.878
 2371SOL    HW110325   4.715   0.631   1.839
 2371SOL    HW210326   4.820   0.575   1.951
 2372SOL     OW10327   3.802   0.556   3.248
 2372SOL    HW110328   3.894   0.555   3.207
 2372SOL    HW210329   3.796   0.630   3.315
 2373SOL     OW10330   4.285   0.222   3.009
 2373SOL    HW110331   4.323   0.138   3.046
 2373SOL    HW210332   4.197   0.241   3.053
 2374SOL     OW10333   4.590   0.454   2.504
 2374SOL    HW110334   4.558   0.526   2.442
 2374SOL    HW210335   4.614   0.373   2.451
 2375SOL     OW10336   4.741   0.039   2.615
 2375SOL    HW110337   4.669   0.044   2.546
 2375SOL    HW210338   4.717  -0.030   2.684
 2376SOL     OW10339   4.212   1.385   2.036
 2376SOL    HW110340   4.125   1.370   2.083
 2376SOL    HW210341   4.195   1.411   1.941
 2377SOL     OW10342   4.251   0.256   2.190
 2377SOL    HW110343   4.278   0.197   2.115
 2377SOL    HW210344   4.251   0.351   2.159
 2378SOL     OW10345   4.788   1.347   3.202
 2378SOL    HW110346   4.708   1.324   3.257
 2378SOL    HW210347   4.871   1.321   3.251
 2379SOL     OW10348   4.835   1.195   2.962
 2379SOL    HW110349   4.795   1.239   3.043
 2379SOL    HW210350   4.794   1.232   2.879
 2380SOL     OW10351   4.639   0.089   3.264
 2380SOL    HW110352   4.664   0.069   3.169
 2380SOL    HW210353   4.711   0.145   3.306
 2381SOL     OW10354   4.704   1.116   3.581
 2381SOL    HW110355   4.605   1.122   3.591
 2381SOL    HW210356   4.727   1.036   3.525
 2382SOL     OW10357   4.429   1.050   2.230
 2382SOL    HW110358   4.415   1.057   2.329
 2382SOL    HW210359   4.513   0.999   2.212
 2383SOL     OW10360   4.134   0.813   3.113
 2383SOL    HW110361   4.220   0.825   3.163
 2383SOL    HW210362   4.092   0.726   3.140
 2384SOL     OW10363   4.091   1.100   2.363
 2384SOL    HW110364   4.084   1.183   2.307
 2384SOL    HW210365   4.095   1.020   2.303
 2385SOL     OW10366   4.290   0.537   2.727
 2385SOL    HW110367   4.302   0.603   2.653
 2385SOL    HW210368   4.336   0.571   2.810
 2386SOL     OW10369   4.976   1.348   2.250
 2386SOL    HW110370   5.026   1.425   2.290
 2386SOL    HW210371   4.881   1.350   2.282
 2387SOL     OW10372   4.078   1.510   3.191
 2387SOL    HW110373   4.057   1.466   3.104
 2387SOL    HW210374   4.175   1.536   3.194
 2388SOL     OW10375   4.126   0.751   3.460
 2388SOL    HW110376   4.194   0.806   3.413
 2388SOL    HW210377   4.166   0.663   3.487
 2389SOL     OW10378   4.737   0.105   3.632
 2389SOL    HW110379   4.743   0.190   3.580
 2389SOL    HW210380   4.769   0.029   3.575
 2390SOL     OW10381   4.297   0.870   2.891
 2390SOL    HW110382   4.341   0.959   2.882
 2390SOL    HW210383   4.234   0.870   2.968
 2391SOL     OW10384   5.084   0.862   2.907
 2391SOL    HW110385   5.009   0.862   2.841
 2391SOL    HW210386   5.121   0.770   2.916
 2392SOL     OW10387   4.933   0.525   2.137
 2392SOL    HW110388   4.946   0.441   2.191
 2392SOL    HW210389   4.904   0.599   2.197
 2393SOL     OW10390   4.031   0.213   3.093
 2393SOL    HW110391   4.008   0.250   3.183
 2393SOL    HW210392   4.001   0.118   3.087
 2394SOL     OW10393   4.456   0.634   2.926
 2394SOL    HW110394   4.515   0.608   2.850
 2394SOL    HW210395   4.428   0.730   2.915
 2395SOL     OW10396   4.031   0.063   2.480
 2395SOL    HW110397   4.020   0.157   2.513
 2395SOL    HW210398   4.026   0.000   2.557
 2396SOL     OW10399   4.747   0.766   2.828
 2396SOL    HW110400   4.762   0.787   2.924
 2396SOL    HW210401   4.717   0.671   2.819
 2397SOL     OW10402   4.704   1.573   3.562
 2397SOL    HW110403   4.684   1.617   3.474
 2397SOL    HW210404   4.743   1.482   3.546
 2398SOL     OW10405   4.074   0.898   3.666
 2398SOL    HW110406   4.150   0.942   3.714
 2398SOL    HW210407   4.109   0.851   3.584
 2399SOL     OW10408   5.264   0.274   1.987
 2399SOL    HW110409   5.203   0.199   2.010
 2399SOL    HW210410   5.286   0.326   2.070
 2400SOL     OW10411   4.792   1.333   2.711
 2400SOL    HW110412   4.799   1.249   2.656
 2400SOL    HW210413   4.854   1.402   2.675
 2401SOL     OW10414   4.043   0.810   2.811
 2401SOL    HW110415   4.136   0.846   2.816
 2401SOL    HW210416   4.037   0.725   2.863
 2402SOL     OW10417   4.063   0.509   2.868
 2402SOL    HW110418   4.011   0.426   2.851
 2402SOL    HW210419   4.140   0.514   2.804
 2403SOL     OW10420   4.862   0.380   3.540
 2403SOL    HW110421   4.817   0.443   3.604
 2403SOL    HW210422   4.955   0.411   3.523
 2404SOL     OW10423   4.884   0.207   3.339
 2404SOL    HW110424   4.884   0.271   3.416
 2404SOL    HW210425   4.912   0.255   3.256
 2405SOL     OW10426   4.228   1.568   2.772
 2405SOL    HW110427   4.294   1.642   2.781
 2405SOL    HW210428   4.272   1.489   2.730
 2406SOL     OW10429   4.726   0.796   3.100
 2406SOL    HW110430   4.767   0.764   3.186
 2406SOL    HW210431   4.630   0.769   3.097
 2407SOL     OW10432   3.764   0.544   2.976
 2407SOL    HW110433   3.849   0.511   2.935
 2407SOL    HW210434   3.777   0.559   3.074
 2408SOL     OW10435   3.913   0.520   3.584
 2408SOL    HW110436   3.972   0.480   3.514
 2408SOL    HW210437   3.855   0.591   3.543
 2409SOL     OW10438   4.539   0.572   2.187
 2409SOL    HW110439   4.546   0.483   2.141
 2409SOL    HW210440   4.445   0.606   2.179
 2410SOL     OW10441   3.976   1.564   3.606
 2410SOL    HW110442   3.946   1.621   3.682
 2410SOL    HW210443   3.969   1.467   3.632
 2411SOL     OW10444   4.395   0.464   3.131
 2411SOL    HW110445   4.361   0.375   3.101
 2411SOL    HW210446   4.421   0.518   3.051
 2412SOL     OW10447   4.654   1.678   3.327
 2412SOL    HW110448   4.630   1.660   3.232
 2412SOL    HW210449   4.684   1.772   3.337
 2413SOL     OW10450   4.197   0.500   2.053
 2413SOL    HW110451   4.258   0.580   2.057
 2413SOL    HW210452   4.102   0.531   2.060
 2414SOL     OW10453   3.883   1.137   3.328
 2414SOL    HW110454   3.905   1.076   3.404
 2414SOL    HW210455   3.893   1.088   3.242
 2415SOL     OW10456   3.807   1.258   2.884
 2415SOL    HW110457   3.802   1.257   2.984
 2415SOL    HW210458   3.724   1.217   2.846
 2416SOL     OW10459   4.412   1.662   3.578
 2416SOL    HW110460   4.356   1.743   3.587
 2416SOL    HW210461   4.464   1.666   3.492
 2417SOL     OW10462   3.854   1.794   3.713
 2417SOL    HW110463   3.813   1.720   3.766
 2417SOL    HW210464   3.918   1.845   3.771
 2418SOL     OW10465   4.554   1.273   3.284
 2418SOL    HW110466   4.549   1.306   3.379
 2418SOL    HW210467   4.468   1.292   3.238
 2419SOL     OW10468   4.396   1.616   2.016
 2419SOL    HW110469   4.405   1.626   1.917
 2419SOL    HW210470   4.356   1.527   2.037
 2420SOL     OW10471   3.987   0.326   2.582
 2420SOL    HW110472   3.908   0.377   2.548
 2420SOL    HW210473   3.978   0.311   2.680
 2421SOL     OW10474   4.546   1.002   3.234
 2421SOL    HW110475   4.586   1.001   3.142
 2421SOL    HW210476   4.556   1.094   3.274
 2422SOL     OW10477   4.640   0.910   2.153
 2422SOL    HW110478   4.703   0.948   2.085
 2422SOL    HW210479   4.680   0.827   2.192
 2423SOL     OW10480   4.096   1.288   3.352
 2423SOL    HW110481   4.083   1.381   3.318
 2423SOL    HW210482   4.012   1.236   3.339
 2424SOL     OW10483   4.763   1.098   2.558
 2424SOL    HW110484   4.693   1.051   2.612
 2424SOL    HW210485   4.822   1.030   2.515
 2425SOL     OW10486   4.738   0.236   2.833
 2425SOL    HW110487   4.730   0.200   2.740
 2425SOL    HW210488   4.736   0.160   2.898
 2426SOL     OW10489   4.314   1.487   2.353
 2426SOL    HW110490   4.356   1.429   2.283
 2426SOL    HW210491   4.270   1.566   2.309
 2427SOL     OW10492   3.979   1.348   2.152
 2427SOL    HW110493   3.883   1.349   2.125
 2427SOL    HW210494   3.991   1.401   2.236
 2428SOL     OW10495   3.829   1.013   3.588
 2428SOL    HW110496   3.752   0.980   3.642
 2428SOL    HW210497   3.914   0.983   3.630
 2429SOL     OW10498   4.396   0.203   3.351
 2429SOL    HW110499   4.486   0.187   3.311
 2429SOL    HW210500   4.404   0.208   3.450
 2430SOL     OW10501   3.799   0.345   1.895
 2430SOL    HW110502   3.707   0.317   1.866
 2430SOL    HW210503   3.830   0.422   1.839
 2431SOL     OW10504   3.796   0.166   2.180
 2431SOL    HW110505   3.779   0.249   2.126
 2431SOL    HW210506   3.886   0.129   2.158
 2432SOL     OW10507   4.337   0.842   3.293
 2432SOL    HW110508   4.393   0.923   3.276
 2432SOL    HW210509   4.396   0.762   3.296
 2433SOL     OW10510   4.440   0.565   3.570
 2433SOL    HW110511   4.459   0.630   3.644
 2433SOL    HW210512   4.500   0.485   3.579
 2434SOL     OW10513   4.114   1.741   3.422
 2434SOL    HW110514   4.023   1.782   3.420
 2434SOL    HW210515   4.107   1.647   3.454
 2435SOL     OW10516   4.318   0.745   2.514
 2435SOL    HW110517   4.368   0.830   2.495
 2435SOL    HW210518   4.230   0.747   2.466
 2436SOL     OW10519   4.583   1.374   1.878
 2436SOL    HW110520   4.537   1.389   1.966
 2436SOL    HW210521   4.627   1.459   1.848
 2437SOL     OW10522   4.385   1.790   2.815
 2437SOL    HW110523   4.339   1.878   2.802
 2437SOL    HW210524   4.484   1.802   2.808
 2438SOL     OW10525   4.583   0.956   2.723
 2438SOL    HW110526   4.637   0.887   2.771
 2438SOL    HW210527   4.551   1.025   2.789
 2439SOL     OW10528   4.807   0.984   1.949
 2439SOL    HW110529   4.784   1.037   1.867
 2439SOL    HW210530   4.888   0.928   1.930
 2440SOL     OW10531   3.945   1.314   3.706
 2440SOL    HW110532   3.880   1.241   3.685
 2440SOL    HW210533   3.949   1.328   3.804
 2441SOL     OW10534   4.396   1.391   3.486
 2441SOL    HW110535   4.318   1.341   3.524
 2441SOL    HW210536   4.393   1.486   3.517
 2442SOL     OW10537   4.152   0.424   2.382
 2442SOL    HW110538   4.182   0.352   2.320
 2442SOL    HW210539   4.113   0.384   2.465
 2443SOL     OW10540   4.041   0.547   3.142
 2443SOL    HW110541   4.079   0.488   3.214
 2443SOL    HW210542   4.081   0.521   3.054
 2444SOL     OW10543   4.536   1.586   2.549
 2444SOL    HW110544   4.568   1.596   2.455
 2444SOL    HW210545   4.457   1.524   2.551
 2445SOL     OW10546   4.725   0.034   3.016
 2445SOL    HW110547   4.662  -0.038   2.985
 2445SOL    HW210548   4.818  -0.002   3.016
 2446SOL     OW10549   4.494   1.330   2.163
 2446SOL    HW110550   4.448   1.243   2.180
 2446SOL    HW210551   4.585   1.327   2.204
 2447SOL     OW10552   4.342   1.567   3.146
 2447SOL    HW110553   4.337   1.649   3.203
 2447SOL    HW210554   4.431   1.564   3.101
 2448SOL     OW10555   4.599   1.646   2.199
 2448SOL    HW110556   4.522   1.611   2.145
 2448SOL    HW210557   4.567   1.717   2.261
 2449SOL     OW10558   3.954   0.628   3.837
 2449SOL    HW110559   3.861   0.626   3.874
 2449SOL    HW210560   3.955   0.589   3.745
 2450SOL     OW10561   3.949   0.275   4.720
 2450SOL    HW110562   3.984   0.258   4.812
 2450SOL    HW210563   3.861   0.230   4.708
 2451SOL     OW10564   3.743   0.368   4.371
 2451SOL    HW110565   3.661   0.411   4.410
 2451SOL    HW210566   3.715   0.295   4.308
 2452SOL     OW10567   4.293   1.275   4.889
 2452SOL    HW110568   4.200   1.268   4.852
 2452SOL    HW210569   4.304   1.364   4.933
 2453SOL     OW10570   4.859   0.703   4.441
 2453SOL    HW110571   4.916   0.781   4.416
 2453SOL    HW210572   4.799   0.729   4.517
 2454SOL     OW10573   4.492   1.144   4.747
 2454SOL    HW110574   4.414   1.161   4.807
 2454SOL    HW210575   4.526   1.231   4.711
 2455SOL     OW10576   4.409   1.012   4.389
 2455SOL    HW110577   4.478   0.996   4.459
 2455SOL    HW210578   4.336   1.069   4.427
 2456SOL     OW10579   4.059   1.435   4.785
 2456SOL    HW110580   3.981   1.404   4.732
 2456SOL    HW210581   4.117   1.493   4.728
 2457SOL     OW10582   5.184   1.505   5.063
 2457SOL    HW110583   5.208   1.599   5.089
 2457SOL    HW210584   5.168   1.451   5.145
 2458SOL     OW10585   3.955   1.713   4.207
 2458SOL    HW110586   3.989   1.790   4.261
 2458SOL    HW210587   3.999   1.713   4.117
 2459SOL     OW10588   3.954   1.434   4.262
 2459SOL    HW110589   3.928   1.530   4.262
 2459SOL    HW210590   3.883   1.380   4.307
 2460SOL     OW10591   3.964   1.091   4.610
 2460SOL    HW110592   3.978   1.007   4.662
 2460SOL    HW210593   3.909   1.155   4.665
 2461SOL     OW10594   4.330   0.964   3.847
 2461SOL    HW110595   4.337   1.048   3.793
 2461SOL    HW210596   4.376   0.977   3.935
 2462SOL     OW10597   3.846   0.643   4.287
 2462SOL    HW110598   3.801   0.555   4.304
 2462SOL    HW210599   3.845   0.697   4.371
 2463SOL     OW10600   3.751   1.596   3.841
 2463SOL    HW110601   3.732   1.500   3.862
 2463SOL    HW210602   3.718   1.654   3.916
 2464SOL     OW10603   4.337   1.365   4.450
 2464SOL    HW110604   4.288   1.278   4.459
 2464SOL    HW210605   4.314   1.408   4.363
 2465SOL     OW10606   4.533   0.004   4.226
 2465SOL    HW110607   4.573   0.095   4.217
 2465SOL    HW210608   4.433   0.012   4.232
 2466SOL     OW10609   3.921   0.976   4.988
 2466SOL    HW110610   4.010   0.931   4.974
 2466SOL    HW210611   3.848   0.911   4.969
 2467SOL     OW10612   4.322   0.729   3.994
 2467SOL    HW110613   4.346   0.798   3.926
 2467SOL    HW210614   4.244   0.762   4.048
 2468SOL     OW10615   4.765   0.701   4.153
 2468SOL    HW110616   4.791   0.697   4.249
 2468SOL    HW210617   4.680   0.650   4.139
 2469SOL     OW10618   3.800   0.811   4.513
 2469SOL    HW110619   3.899   0.799   4.522
 2469SOL    HW210620   3.776   0.906   4.534
 2470SOL     OW10621   4.589   0.348   3.919
 2470SOL    HW110622   4.648   0.411   3.870
 2470SOL    HW210623   4.608   0.254   3.890
 2471SOL     OW10624   4.274   0.196   4.609
 2471SOL    HW110625   4.269   0.191   4.709
 2471SOL    HW210626   4.276   0.292   4.580
 2472SOL     OW10627   4.732   1.456   4.201
 2472SOL    HW110628   4.686   1.528   4.149
 2472SOL    HW210629   4.728   1.476   4.299
 2473SOL     OW10630   4.075   1.801   4.577
 2473SOL    HW110631   4.125   1.715   4.583
 2473SOL    HW210632   4.140   1.878   4.574
 2474SOL     OW10633   4.045   0.943   3.966
 2474SOL    HW110634   4.127   0.982   3.924
 2474SOL    HW210635   4.018   0.861   3.917
 2475SOL     OW10636   4.835   1.776   3.961
 2475SOL    HW110637   4.775   1.714   4.011
 2475SOL    HW210638   4.866   1.732   3.876
 2476SOL     OW10639   4.188   1.743   4.047
 2476SOL    HW110640   4.221   1.782   4.133
 2476SOL    HW210641   4.264   1.736   3.982
 2477SOL     OW10642   3.973   1.785   4.965
 2477SOL    HW110643   4.030   1.720   5.015
 2477SOL    HW210644   3.957   1.752   4.872
 2478SOL     OW10645   4.664   1.698   4.628
 2478SOL    HW110646   4.744   1.641   4.649
 2478SOL    HW210647   4.615   1.658   4.551
 2479SOL     OW10648   4.106   0.700   4.204
 2479SOL    HW110649   4.151   0.610   4.201
 2479SOL    HW210650   4.012   0.689   4.237
 2480SOL     OW10651   4.338   0.122   3.841
 2480SOL    HW110652   4.436   0.100   3.848
 2480SOL    HW210653   4.307   0.105   3.748
 2481SOL     OW10654   4.527   1.402   4.648
 2481SOL    HW110655   4.617   1.416   4.606
 2481SOL    HW210656   4.456   1.404   4.577
 2482SOL     OW10657   4.646   0.503   4.623
 2482SOL    HW110658   4.621   0.494   4.527
 2482SOL    HW210659   4.694   0.421   4.654
 2483SOL     OW10660   4.263   0.064   4.236
 2483SOL    HW110661   4.182   0.065   4.294
 2483SOL    HW210662   4.266   0.147   4.181
 2484SOL     OW10663   4.021   0.035   3.895
 2484SOL    HW110664   4.070   0.119   3.874
 2484SOL    HW210665   4.083  -0.030   3.940
 2485SOL     OW10666   4.659   0.236   4.204
 2485SOL    HW110667   4.611   0.277   4.126
 2485SOL    HW210668   4.758   0.234   4.185
 2486SOL     OW10669   4.951   1.570   4.517
 2486SOL    HW110670   4.972   1.644   4.452
 2486SOL    HW210671   5.019   1.570   4.590
 2487SOL     OW10672   4.183   1.152   4.465
 2487SOL    HW110673   4.112   1.125   4.530
 2487SOL    HW210674   4.157   1.124   4.372
 2488SOL     OW10675   4.995   1.797   4.315
 2488SOL    HW110676   5.039   1.861   4.251
 2488SOL    HW210677   4.945   1.849   4.385
 2489SOL     OW10678   4.756   0.549   3.740
 2489SOL    HW110679   4.715   0.631   3.701
 2489SOL    HW210680   4.820   0.575   3.813
 2490SOL     OW10681   4.590   0.454   4.366
 2490SOL    HW110682   4.558   0.526   4.304
 2490SOL    HW210683   4.614   0.373   4.313
 2491SOL     OW10684   4.741   0.039   4.477
 2491SOL    HW110685   4.669   0.044   4.408
 2491SOL    HW210686   4.717  -0.030   4.546
 2492SOL     OW10687   4.212   1.385   3.898
 2492SOL    HW110688   4.125   1.370   3.945
 2492SOL    HW210689   4.195   1.411   3.803
 2493SOL     OW10690   4.251   0.256   4.052
 2493SOL    HW110691   4.278   0.197   3.977
 2493SOL    HW210692   4.251   0.351   4.021
 2494SOL     OW10693   4.835   1.195   4.824
 2494SOL    HW110694   4.795   1.239   4.905
 2494SOL    HW210695   4.794   1.232   4.741
 2495SOL     OW10696   4.429   1.050   4.092
 2495SOL    HW110697   4.415   1.057   4.191
 2495SOL    HW210698   4.513   0.999   4.074
 2496SOL     OW10699   4.134   0.813   4.975
 2496SOL    HW110700   4.220   0.825   5.025
 2496SOL    HW210701   4.092   0.726   5.002
 2497SOL     OW10702   4.091   1.100   4.225
 2497SOL    HW110703   4.084   1.183   4.169
 2497SOL    HW210704   4.095   1.020   4.165
 2498SOL     OW10705   4.290   0.537   4.589
 2498SOL    HW110706   4.302   0.603   4.515
 2498SOL    HW210707   4.336   0.571   4.672
 2499SOL     OW10708   4.976   1.348   4.112
 2499SOL    HW110709   5.026   1.425   4.152
 2499SOL    HW210710   4.881   1.350   4.144
 2500SOL     OW10711   4.297   0.870   4.753
 2500SOL    HW110712   4.341   0.959   4.744
 2500SOL    HW210713   4.234   0.870   4.830
 2501SOL     OW10714   5.084   0.862   4.769
 2501SOL    HW110715   5.009   0.862   4.703
 2501SOL    HW210716   5.121   0.770   4.778
 2502SOL     OW10717   4.933   0.525   3.999
 2502SOL    HW110718   4.946   0.441   4.053
 2502SOL    HW210719   4.904   0.599   4.059
 2503SOL     OW10720   4.031   0.213   4.955
 2503SOL    HW110721   4.008   0.250   5.045
 2503SOL    HW210722   4.001   0.118   4.949
 2504SOL     OW10723   3.761   1.310   5.006
 2504SOL    HW110724   3.814   1.261   5.074
 2504SOL    HW210725   3.783   1.408   5.011
 2505SOL     OW10726   4.456   0.634   4.788
 2505SOL    HW110727   4.515   0.608   4.712
 2505SOL    HW210728   4.428   0.730   4.777
 2506SOL     OW10729   4.031   0.063   4.342
 2506SOL    HW110730   4.020   0.157   4.375
 2506SOL    HW210731   4.026   0.000   4.419
 2507SOL     OW10732   4.747   0.766   4.690
 2507SOL    HW110733   4.762   0.787   4.786
 2507SOL    HW210734   4.717   0.671   4.681
 2508SOL     OW10735   5.264   0.274   3.849
 2508SOL    HW110736   5.203   0.199   3.872
 2508SOL    HW210737   5.286   0.326   3.932
 2509SOL     OW10738   4.792   1.333   4.573
 2509SOL    HW110739   4.799   1.249   4.518
 2509SOL    HW210740   4.854   1.402   4.537
 2510SOL     OW10741   4.043   0.810   4.673
 2510SOL    HW110742   4.136   0.846   4.678
 2510SOL    HW210743   4.037   0.725   4.725
 2511SOL     OW10744   4.063   0.509   4.730
 2511SOL    HW110745   4.011   0.426   4.713
 2511SOL    HW210746   4.140   0.514   4.666
 2512SOL     OW10747   3.732   1.326   3.924
 2512SOL    HW110748   3.639   1.347   3.893
 2512SOL    HW210749   3.742   1.227   3.937
 2513SOL     OW10750   3.812   1.801   4.651
 2513SOL    HW110751   3.770   1.715   4.624
 2513SOL    HW210752   3.906   1.804   4.617
 2514SOL     OW10753   4.228   1.568   4.634
 2514SOL    HW110754   4.294   1.642   4.643
 2514SOL    HW210755   4.272   1.489   4.592
 2515SOL     OW10756   4.726   0.796   4.962
 2515SOL    HW110757   4.767   0.764   5.048
 2515SOL    HW210758   4.630   0.769   4.959
 2516SOL     OW10759   3.764   0.544   4.838
 2516SOL    HW110760   3.849   0.511   4.797
 2516SOL    HW210761   3.777   0.559   4.936
 2517SOL     OW10762   4.539   0.572   4.049
 2517SOL    HW110763   4.546   0.483   4.003
 2517SOL    HW210764   4.445   0.606   4.041
 2518SOL     OW10765   4.395   0.464   4.993
 2518SOL    HW110766   4.361   0.375   4.963
 2518SOL    HW210767   4.421   0.518   4.913
 2519SOL     OW10768   4.197   0.500   3.915
 2519SOL    HW110769   4.258   0.580   3.919
 2519SOL    HW210770   4.102   0.531   3.922
 2520SOL     OW10771   3.883   1.137   5.190
 2520SOL    HW110772   3.905   1.076   5.266
 2520SOL    HW210773   3.893   1.088   5.104
 2521SOL     OW10774   4.976   1.731   4.852
 2521SOL    HW110775   5.060   1.736   4.798
 2521SOL    HW210776   4.953   1.635   4.870
 2522SOL     OW10777   3.807   1.258   4.746
 2522SOL    HW110778   3.802   1.257   4.846
 2522SOL    HW210779   3.724   1.217   4.708
 2523SOL     OW10780   4.396   1.616   3.878
 2523SOL    HW110781   4.405   1.626   3.779
 2523SOL    HW210782   4.356   1.527   3.899
 2524SOL     OW10783   3.987   0.326   4.444
 2524SOL    HW110784   3.908   0.377   4.410
 2524SOL    HW210785   3.978   0.311   4.542
 2525SOL     OW10786   4.546   1.002   5.096
 2525SOL    HW110787   4.586   1.001   5.004
 2525SOL    HW210788   4.556   1.094   5.136
 2526SOL     OW10789   4.640   0.910   4.015
 2526SOL    HW110790   4.703   0.948   3.947
 2526SOL    HW210791   4.680   0.827   4.054
 2527SOL     OW10792   4.763   1.098   4.420
 2527SOL    HW110793   4.693   1.051   4.474
 2527SOL    HW210794   4.822   1.030   4.377
 2528SOL     OW10795   4.738   0.236   4.695
 2528SOL    HW110796   4.730   0.200   4.602
 2528SOL    HW210797   4.736   0.160   4.760
 2529SOL     OW10798   4.314   1.487   4.215
 2529SOL    HW110799   4.356   1.429   4.145
 2529SOL    HW210800   4.270   1.566   4.171
 2530SOL     OW10801   3.979   1.348   4.014
 2530SOL    HW110802   3.883   1.349   3.987
 2530SOL    HW210803   3.991   1.401   4.098
 2531SOL     OW10804   3.799   0.345   3.757
 2531SOL    HW110805   3.707   0.317   3.728
 2531SOL    HW210806   3.830   0.422   3.701
 2532SOL     OW10807   3.796   0.166   4.042
 2532SOL    HW110808   3.779   0.249   3.988
 2532SOL    HW210809   3.886   0.129   4.020
 2533SOL     OW10810   4.318   0.745   4.376
 2533SOL    HW110811   4.368   0.830   4.357
 2533SOL    HW210812   4.230   0.747   4.328
 2534SOL     OW10813   4.583   1.374   3.740
 2534SOL    HW110814   4.537   1.389   3.828
 2534SOL    HW210815   4.627   1.459   3.710
 2535SOL     OW10816   4.385   1.790   4.677
 2535SOL    HW110817   4.339   1.878   4.664
 2535SOL    HW210818   4.484   1.802   4.670
 2536SOL     OW10819   4.583   0.956   4.585
 2536SOL    HW110820   4.637   0.887   4.633
 2536SOL    HW210821   4.551   1.025   4.651
 2537SOL     OW10822   4.807   0.984   3.811
 2537SOL    HW110823   4.784   1.037   3.729
 2537SOL    HW210824   4.888   0.928   3.792
 2538SOL     OW10825   3.803   1.240   4.377
 2538SOL    HW110826   3.802   1.193   4.465
 2538SOL    HW210827   3.885   1.212   4.326
 2539SOL     OW10828   4.152   0.424   4.244
 2539SOL    HW110829   4.182   0.352   4.182
 2539SOL    HW210830   4.113   0.384   4.327
 2540SOL     OW10831   4.536   1.586   4.411
 2540SOL    HW110832   4.568   1.596   4.317
 2540SOL    HW210833   4.457   1.524   4.413
 2541SOL     OW10834   4.725   0.034   4.878
 2541SOL    HW110835   4.662  -0.038   4.847
 2541SOL    HW210836   4.818  -0.002   4.878
 2542SOL     OW10837   4.494   1.330   4.025
 2542SOL    HW110838   4.448   1.243   4.042
 2542SOL    HW210839   4.585   1.327   4.066
 2543SOL     OW10840   3.763   1.077   4.024
 2543SOL    HW110841   3.862   1.066   4.015
 2543SOL    HW210842   3.723   0.991   4.056
 2544SOL     OW10843   4.599   1.646   4.061
 2544SOL    HW110844   4.522   1.611   4.007
 2544SOL    HW210845   4.567   1.717   4.123
 2545SOL     OW10846   3.954   2.490   0.113
 2545SOL    HW110847   3.861   2.488   0.150
 2545SOL    HW210848   3.955   2.451   0.021
 2546SOL     OW10849   3.949   2.137   0.996
 2546SOL    HW110850   3.984   2.120   1.088
 2546SOL    HW210851   3.861   2.092   0.984
 2547SOL     OW10852   3.743   2.230   0.647
 2547SOL    HW110853   3.661   2.273   0.686
 2547SOL    HW210854   3.715   2.157   0.584
 2548SOL     OW10855   4.293   3.137   1.165
 2548SOL    HW110856   4.200   3.130   1.128
 2548SOL    HW210857   4.304   3.226   1.209
 2549SOL     OW10858   4.492   3.006   1.023
 2549SOL    HW110859   4.414   3.023   1.083
 2549SOL    HW210860   4.526   3.093   0.987
 2550SOL     OW10861   4.574   2.660   1.823
 2550SOL    HW110862   4.570   2.736   1.888
 2550SOL    HW210863   4.596   2.696   1.732
 2551SOL     OW10864   4.409   2.874   0.665
 2551SOL    HW110865   4.478   2.858   0.735
 2551SOL    HW210866   4.336   2.931   0.703
 2552SOL     OW10867   4.410   3.023   1.803
 2552SOL    HW110868   4.470   3.102   1.817
 2552SOL    HW210869   4.324   3.054   1.762
 2553SOL     OW10870   4.059   3.297   1.061
 2553SOL    HW110871   3.981   3.266   1.008
 2553SOL    HW210872   4.117   3.355   1.004
 2554SOL     OW10873   4.162   2.254   1.499
 2554SOL    HW110874   4.244   2.198   1.508
 2554SOL    HW210875   4.081   2.196   1.503
 2555SOL     OW10876   3.955   3.575   0.483
 2555SOL    HW110877   3.989   3.652   0.537
 2555SOL    HW210878   3.999   3.575   0.393
 2556SOL     OW10879   4.851   3.203   1.690
 2556SOL    HW110880   4.898   3.203   1.778
 2556SOL    HW210881   4.803   3.116   1.679
 2557SOL     OW10882   3.954   3.296   0.538
 2557SOL    HW110883   3.928   3.392   0.538
 2557SOL    HW210884   3.883   3.242   0.583
 2558SOL     OW10885   3.964   2.953   0.886
 2558SOL    HW110886   3.978   2.869   0.938
 2558SOL    HW210887   3.909   3.017   0.941
 2559SOL     OW10888   4.344   3.648   1.439
 2559SOL    HW110889   4.252   3.631   1.474
 2559SOL    HW210890   4.372   3.740   1.465
 2560SOL     OW10891   4.330   2.826   0.123
 2560SOL    HW110892   4.337   2.910   0.069
 2560SOL    HW210893   4.376   2.839   0.211
 2561SOL     OW10894   3.846   2.505   0.563
 2561SOL    HW110895   3.801   2.417   0.580
 2561SOL    HW210896   3.845   2.559   0.647
 2562SOL     OW10897   3.751   3.458   0.117
 2562SOL    HW110898   3.732   3.362   0.138
 2562SOL    HW210899   3.718   3.516   0.192
 2563SOL     OW10900   4.337   3.227   0.726
 2563SOL    HW110901   4.288   3.140   0.735
 2563SOL    HW210902   4.314   3.270   0.639
 2564SOL     OW10903   4.533   1.866   0.502
 2564SOL    HW110904   4.573   1.957   0.493
 2564SOL    HW210905   4.433   1.874   0.508
 2565SOL     OW10906   4.041   2.113   1.801
 2565SOL    HW110907   4.112   2.184   1.807
 2565SOL    HW210908   3.953   2.152   1.829
 2566SOL     OW10909   4.322   2.591   0.270
 2566SOL    HW110910   4.346   2.660   0.202
 2566SOL    HW210911   4.244   2.624   0.324
 2567SOL     OW10912   4.531   2.467   1.465
 2567SOL    HW110913   4.484   2.464   1.554
 2567SOL    HW210914   4.480   2.412   1.399
 2568SOL     OW10915   4.697   2.752   1.572
 2568SOL    HW110916   4.743   2.668   1.543
 2568SOL    HW210917   4.641   2.786   1.497
 2569SOL     OW10918   4.715   2.272   1.242
 2569SOL    HW110919   4.638   2.306   1.296
 2569SOL    HW210920   4.681   2.221   1.163
 2570SOL     OW10921   3.854   3.683   1.571
 2570SOL    HW110922   3.844   3.668   1.670
 2570SOL    HW210923   3.768   3.719   1.535
 2571SOL     OW10924   4.589   2.210   0.195
 2571SOL    HW110925   4.648   2.273   0.146
 2571SOL    HW210926   4.608   2.116   0.166
 2572SOL     OW10927   4.274   2.058   0.885
 2572SOL    HW110928   4.269   2.053   0.985
 2572SOL    HW210929   4.276   2.154   0.856
 2573SOL     OW10930   4.732   3.318   0.477
 2573SOL    HW110931   4.686   3.390   0.425
 2573SOL    HW210932   4.728   3.338   0.575
 2574SOL     OW10933   4.075   3.663   0.853
 2574SOL    HW110934   4.125   3.577   0.859
 2574SOL    HW210935   4.140   3.740   0.850
 2575SOL     OW10936   4.951   3.412   1.506
 2575SOL    HW110937   4.957   3.335   1.570
 2575SOL    HW210938   4.899   3.386   1.426
 2576SOL     OW10939   4.045   2.805   0.242
 2576SOL    HW110940   4.127   2.844   0.200
 2576SOL    HW210941   4.018   2.723   0.193
 2577SOL     OW10942   4.185   3.128   1.727
 2577SOL    HW110943   4.135   3.129   1.641
 2577SOL    HW210944   4.122   3.110   1.803
 2578SOL     OW10945   4.835   3.638   0.237
 2578SOL    HW110946   4.775   3.576   0.287
 2578SOL    HW210947   4.866   3.594   0.152
 2579SOL     OW10948   3.973   3.647   1.241
 2579SOL    HW110949   4.030   3.582   1.291
 2579SOL    HW210950   3.957   3.614   1.148
 2580SOL     OW10951   4.664   3.560   0.904
 2580SOL    HW110952   4.744   3.503   0.925
 2580SOL    HW210953   4.615   3.520   0.827
 2581SOL     OW10954   4.106   2.562   0.480
 2581SOL    HW110955   4.151   2.472   0.477
 2581SOL    HW210956   4.012   2.551   0.513
 2582SOL     OW10957   4.338   1.984   0.117
 2582SOL    HW110958   4.436   1.962   0.124
 2582SOL    HW210959   4.307   1.967   0.024
 2583SOL     OW10960   4.505   2.126   1.749
 2583SOL    HW110961   4.572   2.065   1.792
 2583SOL    HW210962   4.432   2.145   1.814
 2584SOL     OW10963   4.612   3.376   1.195
 2584SOL    HW110964   4.589   3.351   1.101
 2584SOL    HW210965   4.673   3.307   1.234
 2585SOL     OW10966   4.527   3.264   0.924
 2585SOL    HW110967   4.617   3.278   0.882
 2585SOL    HW210968   4.456   3.266   0.853
 2586SOL     OW10969   4.263   1.926   0.512
 2586SOL    HW110970   4.182   1.927   0.570
 2586SOL    HW210971   4.266   2.009   0.457
 2587SOL     OW10972   4.021   1.897   0.171
 2587SOL    HW110973   4.070   1.981   0.150
 2587SOL    HW210974   4.083   1.832   0.216
 2588SOL     OW10975   4.659   2.098   0.480
 2588SOL    HW110976   4.611   2.139   0.402
 2588SOL    HW210977   4.758   2.096   0.461
 2589SOL     OW10978   4.800   2.545   1.464
 2589SOL    HW110979   4.720   2.484   1.467
 2589SOL    HW210980   4.881   2.492   1.440
 2590SOL     OW10981   4.951   3.432   0.793
 2590SOL    HW110982   4.972   3.506   0.728
 2590SOL    HW210983   5.019   3.432   0.866
 2591SOL     OW10984   4.183   3.014   0.741
 2591SOL    HW110985   4.112   2.987   0.806
 2591SOL    HW210986   4.157   2.986   0.648
 2592SOL     OW10987   4.995   3.659   0.591
 2592SOL    HW110988   5.039   3.723   0.527
 2592SOL    HW210989   4.945   3.711   0.661
 2593SOL     OW10990   4.756   2.411   0.016
 2593SOL    HW110991   4.715   2.493  -0.023
 2593SOL    HW210992   4.820   2.437   0.089
 2594SOL     OW10993   4.285   2.084   1.147
 2594SOL    HW110994   4.323   2.000   1.184
 2594SOL    HW210995   4.197   2.103   1.191
 2595SOL     OW10996   4.741   1.901   0.753
 2595SOL    HW110997   4.669   1.906   0.684
 2595SOL    HW210998   4.717   1.832   0.822
 2596SOL     OW10999   4.212   3.247   0.174
 2596SOL    HW111000   4.125   3.232   0.221
 2596SOL    HW211001   4.195   3.273   0.079
 2597SOL     OW11002   4.251   2.118   0.328
 2597SOL    HW111003   4.278   2.059   0.253
 2597SOL    HW211004   4.251   2.213   0.297
 2598SOL     OW11005   4.788   3.209   1.340
 2598SOL    HW111006   4.708   3.186   1.395
 2598SOL    HW211007   4.871   3.183   1.389
 2599SOL     OW11008   4.835   3.057   1.100
 2599SOL    HW111009   4.795   3.101   1.181
 2599SOL    HW211010   4.794   3.094   1.017
 2600SOL     OW11011   4.639   1.951   1.402
 2600SOL    HW111012   4.664   1.931   1.307
 2600SOL    HW211013   4.711   2.007   1.444
 2601SOL     OW11014   4.704   2.978   1.719
 2601SOL    HW111015   4.605   2.984   1.729
 2601SOL    HW211016   4.727   2.898   1.663
 2602SOL     OW11017   4.429   2.912   0.368
 2602SOL    HW111018   4.415   2.919   0.467
 2602SOL    HW211019   4.513   2.861   0.350
 2603SOL     OW11020   4.134   2.675   1.251
 2603SOL    HW111021   4.220   2.687   1.301
 2603SOL    HW211022   4.092   2.588   1.278
 2604SOL     OW11023   3.788   3.426   1.331
 2604SOL    HW111024   3.742   3.508   1.297
 2604SOL    HW211025   3.886   3.445   1.340
 2605SOL     OW11026   4.091   2.962   0.501
 2605SOL    HW111027   4.084   3.045   0.445
 2605SOL    HW211028   4.095   2.882   0.441
 2606SOL     OW11029   4.290   2.399   0.865
 2606SOL    HW111030   4.302   2.465   0.791
 2606SOL    HW211031   4.336   2.433   0.948
 2607SOL     OW11032   4.976   3.210   0.388
 2607SOL    HW111033   5.026   3.287   0.428
 2607SOL    HW211034   4.881   3.212   0.420
 2608SOL     OW11035   4.078   3.372   1.329
 2608SOL    HW111036   4.057   3.328   1.242
 2608SOL    HW211037   4.175   3.398   1.332
 2609SOL     OW11038   4.126   2.613   1.598
 2609SOL    HW111039   4.194   2.668   1.551
 2609SOL    HW211040   4.166   2.525   1.625
 2610SOL     OW11041   4.737   1.967   1.770
 2610SOL    HW111042   4.743   2.052   1.718
 2610SOL    HW211043   4.769   1.891   1.713
 2611SOL     OW11044   4.228   1.912   1.740
 2611SOL    HW111045   4.186   1.855   1.670
 2611SOL    HW211046   4.162   1.981   1.772
 2612SOL     OW11047   4.297   2.732   1.029
 2612SOL    HW111048   4.341   2.821   1.020
 2612SOL    HW211049   4.234   2.732   1.106
 2613SOL     OW11050   5.084   2.724   1.045
 2613SOL    HW111051   5.009   2.724   0.979
 2613SOL    HW211052   5.121   2.632   1.054
 2614SOL     OW11053   4.933   2.387   0.275
 2614SOL    HW111054   4.946   2.303   0.329
 2614SOL    HW211055   4.904   2.461   0.335
 2615SOL     OW11056   4.031   2.075   1.231
 2615SOL    HW111057   4.008   2.112   1.321
 2615SOL    HW211058   4.001   1.980   1.225
 2616SOL     OW11059   3.761   3.172   1.282
 2616SOL    HW111060   3.814   3.123   1.350
 2616SOL    HW211061   3.783   3.270   1.287
 2617SOL     OW11062   4.456   2.496   1.064
 2617SOL    HW111063   4.515   2.470   0.988
 2617SOL    HW211064   4.428   2.592   1.053
 2618SOL     OW11065   4.031   1.925   0.618
 2618SOL    HW111066   4.020   2.019   0.651
 2618SOL    HW211067   4.026   1.862   0.695
 2619SOL     OW11068   4.704   3.435   1.700
 2619SOL    HW111069   4.684   3.479   1.612
 2619SOL    HW211070   4.743   3.344   1.684
 2620SOL     OW11071   4.792   3.195   0.849
 2620SOL    HW111072   4.799   3.111   0.794
 2620SOL    HW211073   4.854   3.264   0.813
 2621SOL     OW11074   4.043   2.672   0.949
 2621SOL    HW111075   4.136   2.708   0.954
 2621SOL    HW211076   4.037   2.587   1.001
 2622SOL     OW11077   4.063   2.371   1.006
 2622SOL    HW111078   4.011   2.288   0.989
 2622SOL    HW211079   4.140   2.376   0.942
 2623SOL     OW11080   4.862   2.242   1.678
 2623SOL    HW111081   4.817   2.305   1.742
 2623SOL    HW211082   4.955   2.273   1.661
 2624SOL     OW11083   4.884   2.069   1.477
 2624SOL    HW111084   4.884   2.133   1.554
 2624SOL    HW211085   4.912   2.117   1.394
 2625SOL     OW11086   3.732   3.188   0.200
 2625SOL    HW111087   3.639   3.209   0.169
 2625SOL    HW211088   3.742   3.089   0.213
 2626SOL     OW11089   3.812   3.663   0.927
 2626SOL    HW111090   3.770   3.577   0.900
 2626SOL    HW211091   3.906   3.666   0.893
 2627SOL     OW11092   4.228   3.430   0.910
 2627SOL    HW111093   4.294   3.504   0.919
 2627SOL    HW211094   4.272   3.351   0.868
 2628SOL     OW11095   4.726   2.658   1.238
 2628SOL    HW111096   4.767   2.626   1.324
 2628SOL    HW211097   4.630   2.631   1.235
 2629SOL     OW11098   3.764   2.406   1.114
 2629SOL    HW111099   3.849   2.373   1.073
 2629SOL    HW211100   3.777   2.421   1.212
 2630SOL     OW11101   4.539   2.434   0.325
 2630SOL    HW111102   4.546   2.345   0.279
 2630SOL    HW211103   4.445   2.468   0.317
 2631SOL     OW11104   4.395   2.326   1.269
 2631SOL    HW111105   4.361   2.237   1.239
 2631SOL    HW211106   4.421   2.380   1.189
 2632SOL     OW11107   4.654   3.540   1.465
 2632SOL    HW111108   4.630   3.522   1.370
 2632SOL    HW211109   4.684   3.634   1.475
 2633SOL     OW11110   4.197   2.362   0.191
 2633SOL    HW111111   4.258   2.442   0.195
 2633SOL    HW211112   4.102   2.393   0.198
 2634SOL     OW11113   4.976   3.593   1.128
 2634SOL    HW111114   5.060   3.598   1.074
 2634SOL    HW211115   4.953   3.497   1.146
 2635SOL     OW11116   3.807   3.120   1.022
 2635SOL    HW111117   3.802   3.119   1.122
 2635SOL    HW211118   3.724   3.079   0.984
 2636SOL     OW11119   4.412   3.524   1.716
 2636SOL    HW111120   4.356   3.605   1.725
 2636SOL    HW211121   4.464   3.528   1.630
 2637SOL     OW11122   4.627   1.948   0.133
 2637SOL    HW111123   4.678   1.949   0.047
 2637SOL    HW211124   4.683   1.906   0.204
 2638SOL     OW11125   4.554   3.135   1.422
 2638SOL    HW111126   4.549   3.168   1.517
 2638SOL    HW211127   4.468   3.154   1.376
 2639SOL     OW11128   4.396   3.478   0.154
 2639SOL    HW111129   4.405   3.488   0.055
 2639SOL    HW211130   4.356   3.389   0.175
 2640SOL     OW11131   3.987   2.188   0.720
 2640SOL    HW111132   3.908   2.239   0.686
 2640SOL    HW211133   3.978   2.173   0.818
 2641SOL     OW11134   4.546   2.864   1.372
 2641SOL    HW111135   4.586   2.863   1.280
 2641SOL    HW211136   4.556   2.956   1.412
 2642SOL     OW11137   4.640   2.772   0.291
 2642SOL    HW111138   4.703   2.810   0.223
 2642SOL    HW211139   4.680   2.689   0.330
 2643SOL     OW11140   4.096   3.150   1.490
 2643SOL    HW111141   4.083   3.243   1.456
 2643SOL    HW211142   4.012   3.098   1.477
 2644SOL     OW11143   4.763   2.960   0.696
 2644SOL    HW111144   4.693   2.913   0.750
 2644SOL    HW211145   4.822   2.892   0.653
 2645SOL     OW11146   4.738   2.098   0.971
 2645SOL    HW111147   4.730   2.062   0.878
 2645SOL    HW211148   4.736   2.022   1.036
 2646SOL     OW11149   4.314   3.349   0.491
 2646SOL    HW111150   4.356   3.291   0.421
 2646SOL    HW211151   4.270   3.428   0.447
 2647SOL     OW11152   3.979   3.210   0.290
 2647SOL    HW111153   3.883   3.211   0.263
 2647SOL    HW211154   3.991   3.263   0.374
 2648SOL     OW11155   4.396   2.065   1.489
 2648SOL    HW111156   4.486   2.049   1.449
 2648SOL    HW211157   4.404   2.070   1.588
 2649SOL     OW11158   3.796   2.028   0.318
 2649SOL    HW111159   3.779   2.111   0.264
 2649SOL    HW211160   3.886   1.991   0.296
 2650SOL     OW11161   4.337   2.704   1.431
 2650SOL    HW111162   4.393   2.785   1.414
 2650SOL    HW211163   4.396   2.624   1.434
 2651SOL     OW11164   4.440   2.427   1.708
 2651SOL    HW111165   4.459   2.492   1.782
 2651SOL    HW211166   4.500   2.347   1.717
 2652SOL     OW11167   4.114   3.603   1.560
 2652SOL    HW111168   4.023   3.644   1.558
 2652SOL    HW211169   4.107   3.509   1.592
 2653SOL     OW11170   4.318   2.607   0.652
 2653SOL    HW111171   4.368   2.692   0.633
 2653SOL    HW211172   4.230   2.609   0.604
 2654SOL     OW11173   4.583   3.236   0.016
 2654SOL    HW111174   4.537   3.251   0.104
 2654SOL    HW211175   4.627   3.321  -0.014
 2655SOL     OW11176   4.385   3.652   0.953
 2655SOL    HW111177   4.339   3.740   0.940
 2655SOL    HW211178   4.484   3.664   0.946
 2656SOL     OW11179   4.583   2.818   0.861
 2656SOL    HW111180   4.637   2.749   0.909
 2656SOL    HW211181   4.551   2.887   0.927
 2657SOL     OW11182   4.807   2.846   0.087
 2657SOL    HW111183   4.784   2.899   0.005
 2657SOL    HW211184   4.888   2.790   0.068
 2658SOL     OW11185   3.803   3.102   0.653
 2658SOL    HW111186   3.802   3.055   0.741
 2658SOL    HW211187   3.885   3.074   0.602
 2659SOL     OW11188   4.396   3.253   1.624
 2659SOL    HW111189   4.318   3.203   1.662
 2659SOL    HW211190   4.393   3.348   1.655
 2660SOL     OW11191   4.152   2.286   0.520
 2660SOL    HW111192   4.182   2.214   0.458
 2660SOL    HW211193   4.113   2.246   0.603
 2661SOL     OW11194   4.041   2.409   1.280
 2661SOL    HW111195   4.079   2.350   1.352
 2661SOL    HW211196   4.081   2.383   1.192
 2662SOL     OW11197   4.536   3.448   0.687
 2662SOL    HW111198   4.568   3.458   0.593
 2662SOL    HW211199   4.457   3.386   0.689
 2663SOL     OW11200   4.725   1.896   1.154
 2663SOL    HW111201   4.662   1.824   1.123
 2663SOL    HW211202   4.818   1.860   1.154
 2664SOL     OW11203   4.494   3.192   0.301
 2664SOL    HW111204   4.448   3.105   0.318
 2664SOL    HW211205   4.585   3.189   0.342
 2665SOL     OW11206   4.342   3.429   1.284
 2665SOL    HW111207   4.337   3.511   1.341
 2665SOL    HW211208   4.431   3.426   1.239
 2666SOL     OW11209   4.599   3.508   0.337
 2666SOL    HW111210   4.522   3.473   0.283
 2666SOL    HW211211   4.567   3.579   0.399
 2667SOL     OW11212   4.293   3.137   3.027
 2667SOL    HW111213   4.200   3.130   2.990
 2667SOL    HW211214   4.304   3.226   3.071
 2668SOL     OW11215   4.859   2.565   2.579
 2668SOL    HW111216   4.916   2.643   2.554
 2668SOL    HW211217   4.799   2.591   2.655
 2669SOL     OW11218   4.492   3.006   2.885
 2669SOL    HW111219   4.414   3.023   2.945
 2669SOL    HW211220   4.526   3.093   2.849
 2670SOL     OW11221   4.574   2.660   3.685
 2670SOL    HW111222   4.570   2.736   3.750
 2670SOL    HW211223   4.596   2.696   3.594
 2671SOL     OW11224   4.409   2.874   2.527
 2671SOL    HW111225   4.478   2.858   2.597
 2671SOL    HW211226   4.336   2.931   2.565
 2672SOL     OW11227   4.410   3.023   3.665
 2672SOL    HW111228   4.470   3.102   3.679
 2672SOL    HW211229   4.324   3.054   3.624
 2673SOL     OW11230   4.059   3.297   2.923
 2673SOL    HW111231   3.981   3.266   2.870
 2673SOL    HW211232   4.117   3.355   2.866
 2674SOL     OW11233   4.162   2.254   3.361
 2674SOL    HW111234   4.244   2.198   3.370
 2674SOL    HW211235   4.081   2.196   3.365
 2675SOL     OW11236   3.955   3.575   2.345
 2675SOL    HW111237   3.989   3.652   2.399
 2675SOL    HW211238   3.999   3.575   2.255
 2676SOL     OW11239   4.851   3.203   3.552
 2676SOL    HW111240   4.898   3.203   3.640
 2676SOL    HW211241   4.803   3.116   3.541
 2677SOL     OW11242   3.964   2.953   2.748
 2677SOL    HW111243   3.978   2.869   2.800
 2677SOL    HW211244   3.909   3.017   2.803
 2678SOL     OW11245   4.344   3.648   3.301
 2678SOL    HW111246   4.252   3.631   3.336
 2678SOL    HW211247   4.372   3.740   3.327
 2679SOL     OW11248   4.337   3.227   2.588
 2679SOL    HW111249   4.288   3.140   2.597
 2679SOL    HW211250   4.314   3.270   2.501
 2680SOL     OW11251   4.041   2.113   3.663
 2680SOL    HW111252   4.112   2.184   3.669
 2680SOL    HW211253   3.953   2.152   3.691
 2681SOL     OW11254   4.531   2.467   3.327
 2681SOL    HW111255   4.484   2.464   3.416
 2681SOL    HW211256   4.480   2.412   3.261
 2682SOL     OW11257   4.697   2.752   3.434
 2682SOL    HW111258   4.743   2.668   3.405
 2682SOL    HW211259   4.641   2.786   3.359
 2683SOL     OW11260   4.715   2.272   3.104
 2683SOL    HW111261   4.638   2.306   3.158
 2683SOL    HW211262   4.681   2.221   3.025
 2684SOL     OW11263   4.765   2.563   2.291
 2684SOL    HW111264   4.791   2.559   2.387
 2684SOL    HW211265   4.680   2.512   2.277
 2685SOL     OW11266   3.854   3.683   3.433
 2685SOL    HW111267   3.844   3.668   3.532
 2685SOL    HW211268   3.768   3.719   3.397
 2686SOL     OW11269   4.589   2.210   2.057
 2686SOL    HW111270   4.648   2.273   2.008
 2686SOL    HW211271   4.608   2.116   2.028
 2687SOL     OW11272   4.732   3.318   2.339
 2687SOL    HW111273   4.686   3.390   2.287
 2687SOL    HW211274   4.728   3.338   2.437
 2688SOL     OW11275   4.951   3.412   3.368
 2688SOL    HW111276   4.957   3.335   3.432
 2688SOL    HW211277   4.899   3.386   3.288
 2689SOL     OW11278   4.185   3.128   3.589
 2689SOL    HW111279   4.135   3.129   3.503
 2689SOL    HW211280   4.122   3.110   3.665
 2690SOL     OW11281   4.835   3.638   2.099
 2690SOL    HW111282   4.775   3.576   2.149
 2690SOL    HW211283   4.866   3.594   2.014
 2691SOL     OW11284   3.926   2.147   3.360
 2691SOL    HW111285   3.846   2.207   3.347
 2691SOL    HW211286   3.916   2.098   3.446
 2692SOL     OW11287   4.188   3.605   2.185
 2692SOL    HW111288   4.221   3.644   2.271
 2692SOL    HW211289   4.264   3.598   2.120
 2693SOL     OW11290   4.664   3.560   2.766
 2693SOL    HW111291   4.744   3.503   2.787
 2693SOL    HW211292   4.615   3.520   2.689
 2694SOL     OW11293   4.338   1.984   1.979
 2694SOL    HW111294   4.436   1.962   1.986
 2694SOL    HW211295   4.307   1.967   1.886
 2695SOL     OW11296   4.505   2.126   3.611
 2695SOL    HW111297   4.572   2.065   3.654
 2695SOL    HW211298   4.432   2.145   3.676
 2696SOL     OW11299   4.612   3.376   3.057
 2696SOL    HW111300   4.589   3.351   2.963
 2696SOL    HW211301   4.673   3.307   3.096
 2697SOL     OW11302   4.527   3.264   2.786
 2697SOL    HW111303   4.617   3.278   2.744
 2697SOL    HW211304   4.456   3.266   2.715
 2698SOL     OW11305   4.646   2.365   2.761
 2698SOL    HW111306   4.621   2.356   2.665
 2698SOL    HW211307   4.694   2.283   2.792
 2699SOL     OW11308   4.263   1.926   2.374
 2699SOL    HW111309   4.182   1.927   2.432
 2699SOL    HW211310   4.266   2.009   2.319
 2700SOL     OW11311   4.659   2.098   2.342
 2700SOL    HW111312   4.611   2.139   2.264
 2700SOL    HW211313   4.758   2.096   2.323
 2701SOL     OW11314   4.800   2.545   3.326
 2701SOL    HW111315   4.720   2.484   3.329
 2701SOL    HW211316   4.881   2.492   3.302
 2702SOL     OW11317   4.951   3.432   2.655
 2702SOL    HW111318   4.972   3.506   2.590
 2702SOL    HW211319   5.019   3.432   2.728
 2703SOL     OW11320   4.183   3.014   2.603
 2703SOL    HW111321   4.112   2.987   2.668
 2703SOL    HW211322   4.157   2.986   2.510
 2704SOL     OW11323   4.995   3.659   2.453
 2704SOL    HW111324   5.039   3.723   2.389
 2704SOL    HW211325   4.945   3.711   2.523
 2705SOL     OW11326   4.285   2.084   3.009
 2705SOL    HW111327   4.323   2.000   3.046
 2705SOL    HW211328   4.197   2.103   3.053
 2706SOL     OW11329   4.590   2.316   2.504
 2706SOL    HW111330   4.558   2.388   2.442
 2706SOL    HW211331   4.614   2.235   2.451
 2707SOL     OW11332   4.788   3.209   3.202
 2707SOL    HW111333   4.708   3.186   3.257
 2707SOL    HW211334   4.871   3.183   3.251
 2708SOL     OW11335   4.835   3.057   2.962
 2708SOL    HW111336   4.795   3.101   3.043
 2708SOL    HW211337   4.794   3.094   2.879
 2709SOL     OW11338   4.639   1.951   3.264
 2709SOL    HW111339   4.664   1.931   3.169
 2709SOL    HW211340   4.711   2.007   3.306
 2710SOL     OW11341   4.704   2.978   3.581
 2710SOL    HW111342   4.605   2.984   3.591
 2710SOL    HW211343   4.727   2.898   3.525
 2711SOL     OW11344   4.429   2.912   2.230
 2711SOL    HW111345   4.415   2.919   2.329
 2711SOL    HW211346   4.513   2.861   2.212
 2712SOL     OW11347   4.134   2.675   3.113
 2712SOL    HW111348   4.220   2.687   3.163
 2712SOL    HW211349   4.092   2.588   3.140
 2713SOL     OW11350   4.091   2.962   2.363
 2713SOL    HW111351   4.084   3.045   2.307
 2713SOL    HW211352   4.095   2.882   2.303
 2714SOL     OW11353   4.290   2.399   2.727
 2714SOL    HW111354   4.302   2.465   2.653
 2714SOL    HW211355   4.336   2.433   2.810
 2715SOL     OW11356   4.976   3.210   2.250
 2715SOL    HW111357   5.026   3.287   2.290
 2715SOL    HW211358   4.881   3.212   2.282
 2716SOL     OW11359   4.078   3.372   3.191
 2716SOL    HW111360   4.057   3.328   3.104
 2716SOL    HW211361   4.175   3.398   3.194
 2717SOL     OW11362   4.126   2.613   3.460
 2717SOL    HW111363   4.194   2.668   3.413
 2717SOL    HW211364   4.166   2.525   3.487
 2718SOL     OW11365   4.737   1.967   3.632
 2718SOL    HW111366   4.743   2.052   3.580
 2718SOL    HW211367   4.769   1.891   3.575
 2719SOL     OW11368   4.228   1.912   3.602
 2719SOL    HW111369   4.186   1.855   3.532
 2719SOL    HW211370   4.162   1.981   3.634
 2720SOL     OW11371   4.297   2.732   2.891
 2720SOL    HW111372   4.341   2.821   2.882
 2720SOL    HW211373   4.234   2.732   2.968
 2721SOL     OW11374   5.084   2.724   2.907
 2721SOL    HW111375   5.009   2.724   2.841
 2721SOL    HW211376   5.121   2.632   2.916
 2722SOL     OW11377   4.031   2.075   3.093
 2722SOL    HW111378   4.008   2.112   3.183
 2722SOL    HW211379   4.001   1.980   3.087
 2723SOL     OW11380   4.456   2.496   2.926
 2723SOL    HW111381   4.515   2.470   2.850
 2723SOL    HW211382   4.428   2.592   2.915
 2724SOL     OW11383   4.747   2.628   2.828
 2724SOL    HW111384   4.762   2.649   2.924
 2724SOL    HW211385   4.717   2.533   2.819
 2725SOL     OW11386   4.704   3.435   3.562
 2725SOL    HW111387   4.684   3.479   3.474
 2725SOL    HW211388   4.743   3.344   3.546
 2726SOL     OW11389   4.074   2.760   3.666
 2726SOL    HW111390   4.150   2.804   3.714
 2726SOL    HW211391   4.109   2.713   3.584
 2727SOL     OW11392   5.264   2.136   1.987
 2727SOL    HW111393   5.203   2.061   2.010
 2727SOL    HW211394   5.286   2.188   2.070
 2728SOL     OW11395   4.792   3.195   2.711
 2728SOL    HW111396   4.799   3.111   2.656
 2728SOL    HW211397   4.854   3.264   2.675
 2729SOL     OW11398   4.862   2.242   3.540
 2729SOL    HW111399   4.817   2.305   3.604
 2729SOL    HW211400   4.955   2.273   3.523
 2730SOL     OW11401   4.884   2.069   3.339
 2730SOL    HW111402   4.884   2.133   3.416
 2730SOL    HW211403   4.912   2.117   3.256
 2731SOL     OW11404   4.228   3.430   2.772
 2731SOL    HW111405   4.294   3.504   2.781
 2731SOL    HW211406   4.272   3.351   2.730
 2732SOL     OW11407   4.726   2.658   3.100
 2732SOL    HW111408   4.767   2.626   3.186
 2732SOL    HW211409   4.630   2.631   3.097
 2733SOL     OW11410   4.539   2.434   2.187
 2733SOL    HW111411   4.546   2.345   2.141
 2733SOL    HW211412   4.445   2.468   2.179
 2734SOL     OW11413   3.976   3.426   3.606
 2734SOL    HW111414   3.946   3.483   3.682
 2734SOL    HW211415   3.969   3.329   3.632
 2735SOL     OW11416   4.395   2.326   3.131
 2735SOL    HW111417   4.361   2.237   3.101
 2735SOL    HW211418   4.421   2.380   3.051
 2736SOL     OW11419   4.654   3.540   3.327
 2736SOL    HW111420   4.630   3.522   3.232
 2736SOL    HW211421   4.684   3.634   3.337
 2737SOL     OW11422   4.197   2.362   2.053
 2737SOL    HW111423   4.258   2.442   2.057
 2737SOL    HW211424   4.102   2.393   2.060
 2738SOL     OW11425   3.883   2.999   3.328
 2738SOL    HW111426   3.905   2.938   3.404
 2738SOL    HW211427   3.893   2.950   3.242
 2739SOL     OW11428   4.976   3.593   2.990
 2739SOL    HW111429   5.060   3.598   2.936
 2739SOL    HW211430   4.953   3.497   3.008
 2740SOL     OW11431   4.412   3.524   3.578
 2740SOL    HW111432   4.356   3.605   3.587
 2740SOL    HW211433   4.464   3.528   3.492
 2741SOL     OW11434   3.854   3.656   3.713
 2741SOL    HW111435   3.813   3.582   3.766
 2741SOL    HW211436   3.918   3.707   3.771
 2742SOL     OW11437   4.554   3.135   3.284
 2742SOL    HW111438   4.549   3.168   3.379
 2742SOL    HW211439   4.468   3.154   3.238
 2743SOL     OW11440   4.396   3.478   2.016
 2743SOL    HW111441   4.405   3.488   1.917
 2743SOL    HW211442   4.356   3.389   2.037
 2744SOL     OW11443   4.546   2.864   3.234
 2744SOL    HW111444   4.586   2.863   3.142
 2744SOL    HW211445   4.556   2.956   3.274
 2745SOL     OW11446   4.640   2.772   2.153
 2745SOL    HW111447   4.703   2.810   2.085
 2745SOL    HW211448   4.680   2.689   2.192
 2746SOL     OW11449   4.096   3.150   3.352
 2746SOL    HW111450   4.083   3.243   3.318
 2746SOL    HW211451   4.012   3.098   3.339
 2747SOL     OW11452   4.763   2.960   2.558
 2747SOL    HW111453   4.693   2.913   2.612
 2747SOL    HW211454   4.822   2.892   2.515
 2748SOL     OW11455   4.314   3.349   2.353
 2748SOL    HW111456   4.356   3.291   2.283
 2748SOL    HW211457   4.270   3.428   2.309
 2749SOL     OW11458   3.829   2.875   3.588
 2749SOL    HW111459   3.752   2.842   3.642
 2749SOL    HW211460   3.914   2.845   3.630
 2750SOL     OW11461   4.396   2.065   3.351
 2750SOL    HW111462   4.486   2.049   3.311
 2750SOL    HW211463   4.404   2.070   3.450
 2751SOL     OW11464   4.337   2.704   3.293
 2751SOL    HW111465   4.393   2.785   3.276
 2751SOL    HW211466   4.396   2.624   3.296
 2752SOL     OW11467   4.440   2.427   3.570
 2752SOL    HW111468   4.459   2.492   3.644
 2752SOL    HW211469   4.500   2.347   3.579
 2753SOL     OW11470   4.114   3.603   3.422
 2753SOL    HW111471   4.023   3.644   3.420
 2753SOL    HW211472   4.107   3.509   3.454
 2754SOL     OW11473   4.583   3.236   1.878
 2754SOL    HW111474   4.537   3.251   1.966
 2754SOL    HW211475   4.627   3.321   1.848
 2755SOL     OW11476   4.385   3.652   2.815
 2755SOL    HW111477   4.339   3.740   2.802
 2755SOL    HW211478   4.484   3.664   2.808
 2756SOL     OW11479   4.583   2.818   2.723
 2756SOL    HW111480   4.637   2.749   2.771
 2756SOL    HW211481   4.551   2.887   2.789
 2757SOL     OW11482   4.807   2.846   1.949
 2757SOL    HW111483   4.784   2.899   1.867
 2757SOL    HW211484   4.888   2.790   1.930
 2758SOL     OW11485   3.945   3.176   3.706
 2758SOL    HW111486   3.880   3.103   3.685
 2758SOL    HW211487   3.949   3.190   3.804
 2759SOL     OW11488   4.396   3.253   3.486
 2759SOL    HW111489   4.318   3.203   3.524
 2759SOL    HW211490   4.393   3.348   3.517
 2760SOL     OW11491   4.536   3.448   2.549
 2760SOL    HW111492   4.568   3.458   2.455
 2760SOL    HW211493   4.457   3.386   2.551
 2761SOL     OW11494   4.494   3.192   2.163
 2761SOL    HW111495   4.448   3.105   2.180
 2761SOL    HW211496   4.585   3.189   2.204
 2762SOL     OW11497   4.342   3.429   3.146
 2762SOL    HW111498   4.337   3.511   3.203
 2762SOL    HW211499   4.431   3.426   3.101
 2763SOL     OW11500   4.599   3.508   2.199
 2763SOL    HW111501   4.522   3.473   2.145
 2763SOL    HW211502   4.567   3.579   2.261
 2764SOL     OW11503   3.954   2.490   3.837
 2764SOL    HW111504   3.861   2.488   3.874
 2764SOL    HW211505   3.955   2.451   3.745
 2765SOL     OW11506   3.949   2.137   4.720
 2765SOL    HW111507   3.984   2.120   4.812
 2765SOL    HW211508   3.861   2.092   4.708
 2766SOL     OW11509   3.743   2.230   4.371
 2766SOL    HW111510   3.661   2.273   4.410
 2766SOL    HW211511   3.715   2.157   4.308
 2767SOL     OW11512   4.293   3.137   4.889
 2767SOL    HW111513   4.200   3.130   4.852
 2767SOL    HW211514   4.304   3.226   4.933
 2768SOL     OW11515   4.859   2.565   4.441
 2768SOL    HW111516   4.916   2.643   4.416
 2768SOL    HW211517   4.799   2.591   4.517
 2769SOL     OW11518   4.492   3.006   4.747
 2769SOL    HW111519   4.414   3.023   4.807
 2769SOL    HW211520   4.526   3.093   4.711
 2770SOL     OW11521   4.409   2.874   4.389
 2770SOL    HW111522   4.478   2.858   4.459
 2770SOL    HW211523   4.336   2.931   4.427
 2771SOL     OW11524   4.059   3.297   4.785
 2771SOL    HW111525   3.981   3.266   4.732
 2771SOL    HW211526   4.117   3.355   4.728
 2772SOL     OW11527   5.184   3.367   5.063
 2772SOL    HW111528   5.208   3.461   5.089
 2772SOL    HW211529   5.168   3.313   5.145
 2773SOL     OW11530   3.955   3.575   4.207
 2773SOL    HW111531   3.989   3.652   4.261
 2773SOL    HW211532   3.999   3.575   4.117
 2774SOL     OW11533   3.954   3.296   4.262
 2774SOL    HW111534   3.928   3.392   4.262
 2774SOL    HW211535   3.883   3.242   4.307
 2775SOL     OW11536   3.964   2.953   4.610
 2775SOL    HW111537   3.978   2.869   4.662
 2775SOL    HW211538   3.909   3.017   4.665
 2776SOL     OW11539   4.330   2.826   3.847
 2776SOL    HW111540   4.337   2.910   3.793
 2776SOL    HW211541   4.376   2.839   3.935
 2777SOL     OW11542   3.846   2.505   4.287
 2777SOL    HW111543   3.801   2.417   4.304
 2777SOL    HW211544   3.845   2.559   4.371
 2778SOL     OW11545   3.751   3.458   3.841
 2778SOL    HW111546   3.732   3.362   3.862
 2778SOL    HW211547   3.718   3.516   3.916
 2779SOL     OW11548   4.337   3.227   4.450
 2779SOL    HW111549   4.288   3.140   4.459
 2779SOL    HW211550   4.314   3.270   4.363
 2780SOL     OW11551   4.533   1.866   4.226
 2780SOL    HW111552   4.573   1.957   4.217
 2780SOL    HW211553   4.433   1.874   4.232
 2781SOL     OW11554   3.921   2.838   4.988
 2781SOL    HW111555   4.010   2.793   4.974
 2781SOL    HW211556   3.848   2.773   4.969
 2782SOL     OW11557   4.322   2.591   3.994
 2782SOL    HW111558   4.346   2.660   3.926
 2782SOL    HW211559   4.244   2.624   4.048
 2783SOL     OW11560   4.765   2.563   4.153
 2783SOL    HW111561   4.791   2.559   4.249
 2783SOL    HW211562   4.680   2.512   4.139
 2784SOL     OW11563   3.800   2.673   4.513
 2784SOL    HW111564   3.899   2.661   4.522
 2784SOL    HW211565   3.776   2.768   4.534
 2785SOL     OW11566   4.589   2.210   3.919
 2785SOL    HW111567   4.648   2.273   3.870
 2785SOL    HW211568   4.608   2.116   3.890
 2786SOL     OW11569   4.274   2.058   4.609
 2786SOL    HW111570   4.269   2.053   4.709
 2786SOL    HW211571   4.276   2.154   4.580
 2787SOL     OW11572   4.732   3.318   4.201
 2787SOL    HW111573   4.686   3.390   4.149
 2787SOL    HW211574   4.728   3.338   4.299
 2788SOL     OW11575   4.075   3.663   4.577
 2788SOL    HW111576   4.125   3.577   4.583
 2788SOL    HW211577   4.140   3.740   4.574
 2789SOL     OW11578   4.045   2.805   3.966
 2789SOL    HW111579   4.127   2.844   3.924
 2789SOL    HW211580   4.018   2.723   3.917
 2790SOL     OW11581   4.835   3.638   3.961
 2790SOL    HW111582   4.775   3.576   4.011
 2790SOL    HW211583   4.866   3.594   3.876
 2791SOL     OW11584   4.188   3.605   4.047
 2791SOL    HW111585   4.221   3.644   4.133
 2791SOL    HW211586   4.264   3.598   3.982
 2792SOL     OW11587   3.973   3.647   4.965
 2792SOL    HW111588   4.030   3.582   5.015
 2792SOL    HW211589   3.957   3.614   4.872
 2793SOL     OW11590   4.664   3.560   4.628
 2793SOL    HW111591   4.744   3.503   4.649
 2793SOL    HW211592   4.615   3.520   4.551
 2794SOL     OW11593   4.106   2.562   4.204
 2794SOL    HW111594   4.151   2.472   4.201
 2794SOL    HW211595   4.012   2.551   4.237
 2795SOL     OW11596   4.338   1.984   3.841
 2795SOL    HW111597   4.436   1.962   3.848
 2795SOL    HW211598   4.307   1.967   3.748
 2796SOL     OW11599   4.527   3.264   4.648
 2796SOL    HW111600   4.617   3.278   4.606
 2796SOL    HW211601   4.456   3.266   4.577
 2797SOL     OW11602   4.646   2.365   4.623
 2797SOL    HW111603   4.621   2.356   4.527
 2797SOL    HW211604   4.694   2.283   4.654
 2798SOL     OW11605   4.263   1.926   4.236
 2798SOL    HW111606   4.182   1.927   4.294
 2798SOL    HW211607   4.266   2.009   4.181
 2799SOL     OW11608   4.021   1.897   3.895
 2799SOL    HW111609   4.070   1.981   3.874
 2799SOL    HW211610   4.083   1.832   3.940
 2800SOL     OW11611   4.659   2.098   4.204
 2800SOL    HW111612   4.611   2.139   4.126
 2800SOL    HW211613   4.758   2.096   4.185
 2801SOL     OW11614   4.951   3.432   4.517
 2801SOL    HW111615   4.972   3.506   4.452
 2801SOL    HW211616   5.019   3.432   4.590
 2802SOL     OW11617   4.183   3.014   4.465
 2802SOL    HW111618   4.112   2.987   4.530
 2802SOL    HW211619   4.157   2.986   4.372
 2803SOL     OW11620   4.995   3.659   4.315
 2803SOL    HW111621   5.039   3.723   4.251
 2803SOL    HW211622   4.945   3.711   4.385
 2804SOL     OW11623   4.756   2.411   3.740
 2804SOL    HW111624   4.715   2.493   3.701
 2804SOL    HW211625   4.820   2.437   3.813
 2805SOL     OW11626   4.590   2.316   4.366
 2805SOL    HW111627   4.558   2.388   4.304
 2805SOL    HW211628   4.614   2.235   4.313
 2806SOL     OW11629   4.741   1.901   4.477
 2806SOL    HW111630   4.669   1.906   4.408
 2806SOL    HW211631   4.717   1.832   4.546
 2807SOL     OW11632   4.212   3.247   3.898
 2807SOL    HW111633   4.125   3.232   3.945
 2807SOL    HW211634   4.195   3.273   3.803
 2808SOL     OW11635   4.251   2.118   4.052
 2808SOL    HW111636   4.278   2.059   3.977
 2808SOL    HW211637   4.251   2.213   4.021
 2809SOL     OW11638   4.835   3.057   4.824
 2809SOL    HW111639   4.795   3.101   4.905
 2809SOL    HW211640   4.794   3.094   4.741
 2810SOL     OW11641   4.429   2.912   4.092
 2810SOL    HW111642   4.415   2.919   4.191
 2810SOL    HW211643   4.513   2.861   4.074
 2811SOL     OW11644   4.134   2.675   4.975
 2811SOL    HW111645   4.220   2.687   5.025
 2811SOL    HW211646   4.092   2.588   5.002
 2812SOL     OW11647   4.091   2.962   4.225
 2812SOL    HW111648   4.084   3.045   4.169
 2812SOL    HW211649   4.095   2.882   4.165
 2813SOL     OW11650   4.290   2.399   4.589
 2813SOL    HW111651   4.302   2.465   4.515
 2813SOL    HW211652   4.336   2.433   4.672
 2814SOL     OW11653   4.976   3.210   4.112
 2814SOL    HW111654   5.026   3.287   4.152
 2814SOL    HW211655   4.881   3.212   4.144
 2815SOL     OW11656   4.297   2.732   4.753
 2815SOL    HW111657   4.341   2.821   4.744
 2815SOL    HW211658   4.234   2.732   4.830
 2816SOL     OW11659   5.084   2.724   4.769
 2816SOL    HW111660   5.009   2.724   4.703
 2816SOL    HW211661   5.121   2.632   4.778
 2817SOL     OW11662   4.933   2.387   3.999
 2817SOL    HW111663   4.946   2.303   4.053
 2817SOL    HW211664   4.904   2.461   4.059
 2818SOL     OW11665   4.031   2.075   4.955
 2818SOL    HW111666   4.008   2.112   5.045
 2818SOL    HW211667   4.001   1.980   4.949
 2819SOL     OW11668   3.761   3.172   5.006
 2819SOL    HW111669   3.814   3.123   5.074
 2819SOL    HW211670   3.783   3.270   5.011
 2820SOL     OW11671   4.456   2.496   4.788
 2820SOL    HW111672   4.515   2.470   4.712
 2820SOL    HW211673   4.428   2.592   4.777
 2821SOL     OW11674   4.031   1.925   4.342
 2821SOL    HW111675   4.020   2.019   4.375
 2821SOL    HW211676   4.026   1.862   4.419
 2822SOL     OW11677   4.747   2.628   4.690
 2822SOL    HW111678   4.762   2.649   4.786
 2822SOL    HW211679   4.717   2.533   4.681
 2823SOL     OW11680   5.264   2.136   3.849
 2823SOL    HW111681   5.203   2.061   3.872
 2823SOL    HW211682   5.286   2.188   3.932
 2824SOL     OW11683   4.792   3.195   4.573
 2824SOL    HW111684   4.799   3.111   4.518
 2824SOL    HW211685   4.854   3.264   4.537
 2825SOL     OW11686   4.043   2.672   4.673
 2825SOL    HW111687   4.136   2.708   4.678
 2825SOL    HW211688   4.037   2.587   4.725
 2826SOL     OW11689   4.063   2.371   4.730
 2826SOL    HW111690   4.011   2.288   4.713
 2826SOL    HW211691   4.140   2.376   4.666
 2827SOL     OW11692   4.884   2.069   5.201
 2827SOL    HW111693   4.884   2.133   5.278
 2827SOL    HW211694   4.912   2.117   5.118
 2828SOL     OW11695   3.732   3.188   3.924
 2828SOL    HW111696   3.639   3.209   3.893
 2828SOL    HW211697   3.742   3.089   3.937
 2829SOL     OW11698   3.812   3.663   4.651
 2829SOL    HW111699   3.770   3.577   4.624
 2829SOL    HW211700   3.906   3.666   4.617
 2830SOL     OW11701   4.228   3.430   4.634
 2830SOL    HW111702   4.294   3.504   4.643
 2830SOL    HW211703   4.272   3.351   4.592
 2831SOL     OW11704   4.726   2.658   4.962
 2831SOL    HW111705   4.767   2.626   5.048
 2831SOL    HW211706   4.630   2.631   4.959
 2832SOL     OW11707   3.764   2.406   4.838
 2832SOL    HW111708   3.849   2.373   4.797
 2832SOL    HW211709   3.777   2.421   4.936
 2833SOL     OW11710   4.539   2.434   4.049
 2833SOL    HW111711   4.546   2.345   4.003
 2833SOL    HW211712   4.445   2.468   4.041
 2834SOL     OW11713   4.395   2.326   4.993
 2834SOL    HW111714   4.361   2.237   4.963
 2834SOL    HW211715   4.421   2.380   4.913
 2835SOL     OW11716   4.197   2.362   3.915
 2835SOL    HW111717   4.258   2.442   3.919
 2835SOL    HW211718   4.102   2.393   3.922
 2836SOL     OW11719   3.883   2.999   5.190
 2836SOL    HW111720   3.905   2.938   5.266
 2836SOL    HW211721   3.893   2.950   5.104
 2837SOL     OW11722   4.976   3.593   4.852
 2837SOL    HW111723   5.060   3.598   4.798
 2837SOL    HW211724   4.953   3.497   4.870
 2838SOL     OW11725   3.807   3.120   4.746
 2838SOL    HW111726   3.802   3.119   4.846
 2838SOL    HW211727   3.724   3.079   4.708
 2839SOL     OW11728   4.396   3.478   3.878
 2839SOL    HW111729   4.405   3.488   3.779
 2839SOL    HW211730   4.356   3.389   3.899
 2840SOL     OW11731   3.987   2.188   4.444
 2840SOL    HW111732   3.908   2.239   4.410
 2840SOL    HW211733   3.978   2.173   4.542
 2841SOL     OW11734   4.546   2.864   5.096
 2841SOL    HW111735   4.586   2.863   5.004
 2841SOL    HW211736   4.556   2.956   5.136
 2842SOL     OW11737   4.640   2.772   4.015
 2842SOL    HW111738   4.703   2.810   3.947
 2842SOL    HW211739   4.680   2.689   4.054
 2843SOL     OW11740   4.763   2.960   4.420
 2843SOL    HW111741   4.693   2.913   4.474
 2843SOL    HW211742   4.822   2.892   4.377
 2844SOL     OW11743   4.738   2.098   4.695
 2844SOL    HW111744   4.730   2.062   4.602
 2844SOL    HW211745   4.736   2.022   4.760
 2845SOL     OW11746   4.314   3.349   4.215
 2845SOL    HW111747   4.356   3.291   4.145
 2845SOL    HW211748   4.270   3.428   4.171
 2846SOL     OW11749   3.979   3.210   4.014
 2846SOL    HW111750   3.883   3.211   3.987
 2846SOL    HW211751   3.991   3.263   4.098
 2847SOL     OW11752   3.799   2.207   3.757
 2847SOL    HW111753   3.707   2.179   3.728
 2847SOL    HW211754   3.830   2.284   3.701
 2848SOL     OW11755   3.796   2.028   4.042
 2848SOL    HW111756   3.779   2.111   3.988
 2848SOL    HW211757   3.886   1.991   4.020
 2849SOL     OW11758   4.318   2.607   4.376
 2849SOL    HW111759   4.368   2.692   4.357
 2849SOL    HW211760   4.230   2.609   4.328
 2850SOL     OW11761   4.583   3.236   3.740
 2850SOL    HW111762   4.537   3.251   3.828
 2850SOL    HW211763   4.627   3.321   3.710
 2851SOL     OW11764   4.385   3.652   4.677
 2851SOL    HW111765   4.339   3.740   4.664
 2851SOL    HW211766   4.484   3.664   4.670
 2852SOL     OW11767   4.583   2.818   4.585
 2852SOL    HW111768   4.637   2.749   4.633
 2852SOL    HW211769   4.551   2.887   4.651
 2853SOL     OW11770   4.807   2.846   3.811
 2853SOL    HW111771   4.784   2.899   3.729
 2853SOL    HW211772   4.888   2.790   3.792
 2854SOL     OW11773   3.803   3.102   4.377
 2854SOL    HW111774   3.802   3.055   4.465
 2854SOL    HW211775   3.885   3.074   4.326
 2855SOL     OW11776   4.152   2.286   4.244
 2855SOL    HW111777   4.182   2.214   4.182
 2855SOL    HW211778   4.113   2.246   4.327
 2856SOL     OW11779   4.536   3.448   4.411
 2856SOL    HW111780   4.568   3.458   4.317
 2856SOL    HW211781   4.457   3.386   4.413
 2857SOL     OW11782   4.725   1.896   4.878
 2857SOL    HW111783   4.662   1.824   4.847
 2857SOL    HW211784   4.818   1.860   4.878
 2858SOL     OW11785   4.494   3.192   4.025
 2858SOL    HW111786   4.448   3.105   4.042
 2858SOL    HW211787   4.585   3.189   4.066
 2859SOL     OW11788   3.763   2.939   4.024
 2859SOL    HW111789   3.862   2.928   4.015
 2859SOL    HW211790   3.723   2.853   4.056
 2860SOL     OW11791   4.599   3.508   4.061
 2860SOL    HW111792   4.522   3.473   4.007
 2860SOL    HW211793   4.567   3.579   4.123
 2861SOL     OW11794   3.954   4.352   0.113
 2861SOL    HW111795   3.861   4.350   0.150
 2861SOL    HW211796   3.955   4.313   0.021
 2862SOL     OW11797   3.949   3.999   0.996
 2862SOL    HW111798   3.984   3.982   1.088
 2862SOL    HW211799   3.861   3.954   0.984
 2863SOL     OW11800   3.743   4.092   0.647
 2863SOL    HW111801   3.661   4.135   0.686
 2863SOL    HW211802   3.715   4.019   0.584
 2864SOL     OW11803   4.859   4.427   0.717
 2864SOL    HW111804   4.916   4.505   0.692
 2864SOL    HW211805   4.799   4.453   0.793
 2865SOL     OW11806   4.409   4.736   0.665
 2865SOL    HW111807   4.478   4.720   0.735
 2865SOL    HW211808   4.336   4.793   0.703
 2866SOL     OW11809   4.410   4.885   1.803
 2866SOL    HW111810   4.470   4.964   1.817
 2866SOL    HW211811   4.324   4.916   1.762
 2867SOL     OW11812   4.162   4.116   1.499
 2867SOL    HW111813   4.244   4.060   1.508
 2867SOL    HW211814   4.081   4.058   1.503
 2868SOL     OW11815   3.964   4.815   0.886
 2868SOL    HW111816   3.978   4.731   0.938
 2868SOL    HW211817   3.909   4.879   0.941
 2869SOL     OW11818   4.330   4.688   0.123
 2869SOL    HW111819   4.337   4.772   0.069
 2869SOL    HW211820   4.376   4.701   0.211
 2870SOL     OW11821   3.846   4.367   0.563
 2870SOL    HW111822   3.801   4.279   0.580
 2870SOL    HW211823   3.845   4.421   0.647
 2871SOL     OW11824   3.837   4.461   1.597
 2871SOL    HW111825   3.925   4.448   1.642
 2871SOL    HW211826   3.824   4.558   1.575
 2872SOL     OW11827   3.921   4.700   1.264
 2872SOL    HW111828   4.010   4.655   1.250
 2872SOL    HW211829   3.848   4.635   1.245
 2873SOL     OW11830   4.041   3.975   1.801
 2873SOL    HW111831   4.112   4.046   1.807
 2873SOL    HW211832   3.953   4.014   1.829
 2874SOL     OW11833   4.322   4.453   0.270
 2874SOL    HW111834   4.346   4.522   0.202
 2874SOL    HW211835   4.244   4.486   0.324
 2875SOL     OW11836   4.531   4.329   1.465
 2875SOL    HW111837   4.484   4.326   1.554
 2875SOL    HW211838   4.480   4.274   1.399
 2876SOL     OW11839   4.715   4.134   1.242
 2876SOL    HW111840   4.638   4.168   1.296
 2876SOL    HW211841   4.681   4.083   1.163
 2877SOL     OW11842   4.765   4.425   0.429
 2877SOL    HW111843   4.791   4.421   0.525
 2877SOL    HW211844   4.680   4.374   0.415
 2878SOL     OW11845   3.800   4.535   0.789
 2878SOL    HW111846   3.899   4.523   0.798
 2878SOL    HW211847   3.776   4.630   0.810
 2879SOL     OW11848   4.589   4.072   0.195
 2879SOL    HW111849   4.648   4.135   0.146
 2879SOL    HW211850   4.608   3.978   0.166
 2880SOL     OW11851   4.274   3.920   0.885
 2880SOL    HW111852   4.269   3.915   0.985
 2880SOL    HW211853   4.276   4.016   0.856
 2881SOL     OW11854   4.045   4.667   0.242
 2881SOL    HW111855   4.127   4.706   0.200
 2881SOL    HW211856   4.018   4.585   0.193
 2882SOL     OW11857   3.926   4.009   1.498
 2882SOL    HW111858   3.846   4.069   1.485
 2882SOL    HW211859   3.916   3.960   1.584
 2883SOL     OW11860   4.106   4.424   0.480
 2883SOL    HW111861   4.151   4.334   0.477
 2883SOL    HW211862   4.012   4.413   0.513
 2884SOL     OW11863   4.338   3.846   0.117
 2884SOL    HW111864   4.436   3.824   0.124
 2884SOL    HW211865   4.307   3.829   0.024
 2885SOL     OW11866   4.505   3.988   1.749
 2885SOL    HW111867   4.572   3.927   1.792
 2885SOL    HW211868   4.432   4.007   1.814
 2886SOL     OW11869   4.646   4.227   0.899
 2886SOL    HW111870   4.621   4.218   0.803
 2886SOL    HW211871   4.694   4.145   0.930
 2887SOL     OW11872   4.021   3.759   0.171
 2887SOL    HW111873   4.070   3.843   0.150
 2887SOL    HW211874   4.083   3.694   0.216
 2888SOL     OW11875   4.659   3.960   0.480
 2888SOL    HW111876   4.611   4.001   0.402
 2888SOL    HW211877   4.758   3.958   0.461
 2889SOL     OW11878   4.800   4.407   1.464
 2889SOL    HW111879   4.720   4.346   1.467
 2889SOL    HW211880   4.881   4.354   1.440
 2890SOL     OW11881   4.183   4.876   0.741
 2890SOL    HW111882   4.112   4.849   0.806
 2890SOL    HW211883   4.157   4.848   0.648
 2891SOL     OW11884   4.756   4.273   0.016
 2891SOL    HW111885   4.715   4.355  -0.023
 2891SOL    HW211886   4.820   4.299   0.089
 2892SOL     OW11887   3.802   4.280   1.386
 2892SOL    HW111888   3.894   4.279   1.345
 2892SOL    HW211889   3.796   4.354   1.453
 2893SOL     OW11890   4.285   3.946   1.147
 2893SOL    HW111891   4.323   3.862   1.184
 2893SOL    HW211892   4.197   3.965   1.191
 2894SOL     OW11893   4.590   4.178   0.642
 2894SOL    HW111894   4.558   4.250   0.580
 2894SOL    HW211895   4.614   4.097   0.589
 2895SOL     OW11896   4.741   3.763   0.753
 2895SOL    HW111897   4.669   3.768   0.684
 2895SOL    HW211898   4.717   3.694   0.822
 2896SOL     OW11899   4.251   3.980   0.328
 2896SOL    HW111900   4.278   3.921   0.253
 2896SOL    HW211901   4.251   4.075   0.297
 2897SOL     OW11902   4.639   3.813   1.402
 2897SOL    HW111903   4.664   3.793   1.307
 2897SOL    HW211904   4.711   3.869   1.444
 2898SOL     OW11905   4.704   4.840   1.719
 2898SOL    HW111906   4.605   4.846   1.729
 2898SOL    HW211907   4.727   4.760   1.663
 2899SOL     OW11908   4.429   4.774   0.368
 2899SOL    HW111909   4.415   4.781   0.467
 2899SOL    HW211910   4.513   4.723   0.350
 2900SOL     OW11911   4.134   4.537   1.251
 2900SOL    HW111912   4.220   4.549   1.301
 2900SOL    HW211913   4.092   4.450   1.278
 2901SOL     OW11914   4.091   4.824   0.501
 2901SOL    HW111915   4.084   4.907   0.445
 2901SOL    HW211916   4.095   4.744   0.441
 2902SOL     OW11917   4.290   4.261   0.865
 2902SOL    HW111918   4.302   4.327   0.791
 2902SOL    HW211919   4.336   4.295   0.948
 2903SOL     OW11920   4.126   4.475   1.598
 2903SOL    HW111921   4.194   4.530   1.551
 2903SOL    HW211922   4.166   4.387   1.625
 2904SOL     OW11923   4.737   3.829   1.770
 2904SOL    HW111924   4.743   3.914   1.718
 2904SOL    HW211925   4.769   3.753   1.713
 2905SOL     OW11926   4.228   3.774   1.740
 2905SOL    HW111927   4.186   3.717   1.670
 2905SOL    HW211928   4.162   3.843   1.772
 2906SOL     OW11929   5.084   4.586   1.045
 2906SOL    HW111930   5.009   4.586   0.979
 2906SOL    HW211931   5.121   4.494   1.054
 2907SOL     OW11932   4.933   4.249   0.275
 2907SOL    HW111933   4.946   4.165   0.329
 2907SOL    HW211934   4.904   4.323   0.335
 2908SOL     OW11935   4.031   3.937   1.231
 2908SOL    HW111936   4.008   3.974   1.321
 2908SOL    HW211937   4.001   3.842   1.225
 2909SOL     OW11938   4.456   4.358   1.064
 2909SOL    HW111939   4.515   4.332   0.988
 2909SOL    HW211940   4.428   4.454   1.053
 2910SOL     OW11941   4.031   3.787   0.618
 2910SOL    HW111942   4.020   3.881   0.651
 2910SOL    HW211943   4.026   3.724   0.695
 2911SOL     OW11944   4.747   4.490   0.966
 2911SOL    HW111945   4.762   4.511   1.062
 2911SOL    HW211946   4.717   4.395   0.957
 2912SOL     OW11947   4.074   4.622   1.804
 2912SOL    HW111948   4.150   4.666   1.852
 2912SOL    HW211949   4.109   4.575   1.722
 2913SOL     OW11950   4.043   4.534   0.949
 2913SOL    HW111951   4.136   4.570   0.954
 2913SOL    HW211952   4.037   4.449   1.001
 2914SOL     OW11953   4.063   4.233   1.006
 2914SOL    HW111954   4.011   4.150   0.989
 2914SOL    HW211955   4.140   4.238   0.942
 2915SOL     OW11956   4.862   4.104   1.678
 2915SOL    HW111957   4.817   4.167   1.742
 2915SOL    HW211958   4.955   4.135   1.661
 2916SOL     OW11959   4.884   3.931   1.477
 2916SOL    HW111960   4.884   3.995   1.554
 2916SOL    HW211961   4.912   3.979   1.394
 2917SOL     OW11962   3.732   5.050   0.200
 2917SOL    HW111963   3.639   5.071   0.169
 2917SOL    HW211964   3.742   4.951   0.213
 2918SOL     OW11965   4.726   4.520   1.238
 2918SOL    HW111966   4.767   4.488   1.324
 2918SOL    HW211967   4.630   4.493   1.235
 2919SOL     OW11968   3.764   4.268   1.114
 2919SOL    HW111969   3.849   4.235   1.073
 2919SOL    HW211970   3.777   4.283   1.212
 2920SOL     OW11971   3.913   4.244   1.722
 2920SOL    HW111972   3.972   4.204   1.652
 2920SOL    HW211973   3.855   4.315   1.681
 2921SOL     OW11974   4.539   4.296   0.325
 2921SOL    HW111975   4.546   4.207   0.279
 2921SOL    HW211976   4.445   4.330   0.317
 2922SOL     OW11977   4.395   4.188   1.269
 2922SOL    HW111978   4.361   4.099   1.239
 2922SOL    HW211979   4.421   4.242   1.189
 2923SOL     OW11980   4.197   4.224   0.191
 2923SOL    HW111981   4.258   4.304   0.195
 2923SOL    HW211982   4.102   4.255   0.198
 2924SOL     OW11983   3.883   4.861   1.466
 2924SOL    HW111984   3.905   4.800   1.542
 2924SOL    HW211985   3.893   4.812   1.380
 2925SOL     OW11986   3.807   4.982   1.022
 2925SOL    HW111987   3.802   4.981   1.122
 2925SOL    HW211988   3.724   4.941   0.984
 2926SOL     OW11989   4.627   3.810   0.133
 2926SOL    HW111990   4.678   3.811   0.047
 2926SOL    HW211991   4.683   3.768   0.204
 2927SOL     OW11992   3.987   4.050   0.720
 2927SOL    HW111993   3.908   4.101   0.686
 2927SOL    HW211994   3.978   4.035   0.818
 2928SOL     OW11995   4.546   4.726   1.372
 2928SOL    HW111996   4.586   4.725   1.280
 2928SOL    HW211997   4.556   4.818   1.412
 2929SOL     OW11998   4.640   4.634   0.291
 2929SOL    HW111999   4.703   4.672   0.223
 2929SOL    HW212000   4.680   4.551   0.330
 2930SOL     OW12001   4.096   5.012   1.490
 2930SOL    HW112002   4.083   5.105   1.456
 2930SOL    HW212003   4.012   4.960   1.477
 2931SOL     OW12004   4.763   4.822   0.696
 2931SOL    HW112005   4.693   4.775   0.750
 2931SOL    HW212006   4.822   4.754   0.653
 2932SOL     OW12007   4.738   3.960   0.971
 2932SOL    HW112008   4.730   3.924   0.878
 2932SOL    HW212009   4.736   3.884   1.036
 2933SOL     OW12010   3.829   4.737   1.726
 2933SOL    HW112011   3.752   4.704   1.780
 2933SOL    HW212012   3.914   4.707   1.768
 2934SOL     OW12013   4.396   3.927   1.489
 2934SOL    HW112014   4.486   3.911   1.449
 2934SOL    HW212015   4.404   3.932   1.588
 2935SOL     OW12016   3.796   3.890   0.318
 2935SOL    HW112017   3.779   3.973   0.264
 2935SOL    HW212018   3.886   3.853   0.296
 2936SOL     OW12019   4.337   4.566   1.431
 2936SOL    HW112020   4.393   4.647   1.414
 2936SOL    HW212021   4.396   4.486   1.434
 2937SOL     OW12022   4.318   4.469   0.652
 2937SOL    HW112023   4.368   4.554   0.633
 2937SOL    HW212024   4.230   4.471   0.604
 2938SOL     OW12025   4.583   4.680   0.861
 2938SOL    HW112026   4.637   4.611   0.909
 2938SOL    HW212027   4.551   4.749   0.927
 2939SOL     OW12028   4.807   4.708   0.087
 2939SOL    HW112029   4.784   4.761   0.005
 2939SOL    HW212030   4.888   4.652   0.068
 2940SOL     OW12031   3.803   4.964   0.653
 2940SOL    HW112032   3.802   4.917   0.741
 2940SOL    HW212033   3.885   4.936   0.602
 2941SOL     OW12034   4.152   4.148   0.520
 2941SOL    HW112035   4.182   4.076   0.458
 2941SOL    HW212036   4.113   4.108   0.603
 2942SOL     OW12037   4.041   4.271   1.280
 2942SOL    HW112038   4.079   4.212   1.352
 2942SOL    HW212039   4.081   4.245   1.192
 2943SOL     OW12040   4.725   3.758   1.154
 2943SOL    HW112041   4.662   3.686   1.123
 2943SOL    HW212042   4.818   3.722   1.154
 2944SOL     OW12043   4.494   5.054   0.301
 2944SOL    HW112044   4.448   4.967   0.318
 2944SOL    HW212045   4.585   5.051   0.342
 2945SOL     OW12046   3.954   4.352   1.975
 2945SOL    HW112047   3.861   4.350   2.012
 2945SOL    HW212048   3.955   4.313   1.883
 2946SOL     OW12049   3.949   3.999   2.858
 2946SOL    HW112050   3.984   3.982   2.950
 2946SOL    HW212051   3.861   3.954   2.846
 2947SOL     OW12052   3.743   4.092   2.509
 2947SOL    HW112053   3.661   4.135   2.548
 2947SOL    HW212054   3.715   4.019   2.446
 2948SOL     OW12055   4.859   4.427   2.579
 2948SOL    HW112056   4.916   4.505   2.554
 2948SOL    HW212057   4.799   4.453   2.655
 2949SOL     OW12058   4.492   4.868   2.885
 2949SOL    HW112059   4.414   4.885   2.945
 2949SOL    HW212060   4.526   4.955   2.849
 2950SOL     OW12061   4.574   4.522   3.685
 2950SOL    HW112062   4.570   4.598   3.750
 2950SOL    HW212063   4.596   4.558   3.594
 2951SOL     OW12064   4.409   4.736   2.527
 2951SOL    HW112065   4.478   4.720   2.597
 2951SOL    HW212066   4.336   4.793   2.565
 2952SOL     OW12067   4.410   4.885   3.665
 2952SOL    HW112068   4.470   4.964   3.679
 2952SOL    HW212069   4.324   4.916   3.624
 2953SOL     OW12070   4.162   4.116   3.361
 2953SOL    HW112071   4.244   4.060   3.370
 2953SOL    HW212072   4.081   4.058   3.365
 2954SOL     OW12073   3.964   4.815   2.748
 2954SOL    HW112074   3.978   4.731   2.800
 2954SOL    HW212075   3.909   4.879   2.803
 2955SOL     OW12076   4.330   4.688   1.985
 2955SOL    HW112077   4.337   4.772   1.931
 2955SOL    HW212078   4.376   4.701   2.073
 2956SOL     OW12079   3.846   4.367   2.425
 2956SOL    HW112080   3.801   4.279   2.442
 2956SOL    HW212081   3.845   4.421   2.509
 2957SOL     OW12082   3.837   4.461   3.459
 2957SOL    HW112083   3.925   4.448   3.504
 2957SOL    HW212084   3.824   4.558   3.437
 2958SOL     OW12085   4.533   3.728   2.364
 2958SOL    HW112086   4.573   3.819   2.355
 2958SOL    HW212087   4.433   3.736   2.370
 2959SOL     OW12088   3.921   4.700   3.126
 2959SOL    HW112089   4.010   4.655   3.112
 2959SOL    HW212090   3.848   4.635   3.107
 2960SOL     OW12091   4.041   3.975   3.663
 2960SOL    HW112092   4.112   4.046   3.669
 2960SOL    HW212093   3.953   4.014   3.691
 2961SOL     OW12094   4.322   4.453   2.132
 2961SOL    HW112095   4.346   4.522   2.064
 2961SOL    HW212096   4.244   4.486   2.186
 2962SOL     OW12097   4.531   4.329   3.327
 2962SOL    HW112098   4.484   4.326   3.416
 2962SOL    HW212099   4.480   4.274   3.261
 2963SOL     OW12100   4.697   4.614   3.434
 2963SOL    HW112101   4.743   4.530   3.405
 2963SOL    HW212102   4.641   4.648   3.359
 2964SOL     OW12103   4.715   4.134   3.104
 2964SOL    HW112104   4.638   4.168   3.158
 2964SOL    HW212105   4.681   4.083   3.025
 2965SOL     OW12106   4.765   4.425   2.291
 2965SOL    HW112107   4.791   4.421   2.387
 2965SOL    HW212108   4.680   4.374   2.277
 2966SOL     OW12109   3.800   4.535   2.651
 2966SOL    HW112110   3.899   4.523   2.660
 2966SOL    HW212111   3.776   4.630   2.672
 2967SOL     OW12112   4.589   4.072   2.057
 2967SOL    HW112113   4.648   4.135   2.008
 2967SOL    HW212114   4.608   3.978   2.028
 2968SOL     OW12115   4.274   3.920   2.747
 2968SOL    HW112116   4.269   3.915   2.847
 2968SOL    HW212117   4.276   4.016   2.718
 2969SOL     OW12118   4.045   4.667   2.104
 2969SOL    HW112119   4.127   4.706   2.062
 2969SOL    HW212120   4.018   4.585   2.055
 2970SOL     OW12121   3.926   4.009   3.360
 2970SOL    HW112122   3.846   4.069   3.347
 2970SOL    HW212123   3.916   3.960   3.446
 2971SOL     OW12124   4.106   4.424   2.342
 2971SOL    HW112125   4.151   4.334   2.339
 2971SOL    HW212126   4.012   4.413   2.375
 2972SOL     OW12127   4.338   3.846   1.979
 2972SOL    HW112128   4.436   3.824   1.986
 2972SOL    HW212129   4.307   3.829   1.886
 2973SOL     OW12130   4.505   3.988   3.611
 2973SOL    HW112131   4.572   3.927   3.654
 2973SOL    HW212132   4.432   4.007   3.676
 2974SOL     OW12133   4.646   4.227   2.761
 2974SOL    HW112134   4.621   4.218   2.665
 2974SOL    HW212135   4.694   4.145   2.792
 2975SOL     OW12136   4.263   3.788   2.374
 2975SOL    HW112137   4.182   3.789   2.432
 2975SOL    HW212138   4.266   3.871   2.319
 2976SOL     OW12139   5.158   4.912   1.903
 2976SOL    HW112140   5.190   4.836   1.960
 2976SOL    HW212141   5.066   4.939   1.933
 2977SOL     OW12142   4.021   3.759   2.033
 2977SOL    HW112143   4.070   3.843   2.012
 2977SOL    HW212144   4.083   3.694   2.078
 2978SOL     OW12145   4.659   3.960   2.342
 2978SOL    HW112146   4.611   4.001   2.264
 2978SOL    HW212147   4.758   3.958   2.323
 2979SOL     OW12148   4.800   4.407   3.326
 2979SOL    HW112149   4.720   4.346   3.329
 2979SOL    HW212150   4.881   4.354   3.302
 2980SOL     OW12151   4.183   4.876   2.603
 2980SOL    HW112152   4.112   4.849   2.668
 2980SOL    HW212153   4.157   4.848   2.510
 2981SOL     OW12154   3.802   4.280   3.248
 2981SOL    HW112155   3.894   4.279   3.207
 2981SOL    HW212156   3.796   4.354   3.315
 2982SOL     OW12157   4.285   3.946   3.009
 2982SOL    HW112158   4.323   3.862   3.046
 2982SOL    HW212159   4.197   3.965   3.053
 2983SOL     OW12160   4.590   4.178   2.504
 2983SOL    HW112161   4.558   4.250   2.442
 2983SOL    HW212162   4.614   4.097   2.451
 2984SOL     OW12163   4.741   3.763   2.615
 2984SOL    HW112164   4.669   3.768   2.546
 2984SOL    HW212165   4.717   3.694   2.684
 2985SOL     OW12166   4.251   3.980   2.190
 2985SOL    HW112167   4.278   3.921   2.115
 2985SOL    HW212168   4.251   4.075   2.159
 2986SOL     OW12169   4.639   3.813   3.264
 2986SOL    HW112170   4.664   3.793   3.169
 2986SOL    HW212171   4.711   3.869   3.306
 2987SOL     OW12172   4.704   4.840   3.581
 2987SOL    HW112173   4.605   4.846   3.591
 2987SOL    HW212174   4.727   4.760   3.525
 2988SOL     OW12175   4.429   4.774   2.230
 2988SOL    HW112176   4.415   4.781   2.329
 2988SOL    HW212177   4.513   4.723   2.212
 2989SOL     OW12178   4.134   4.537   3.113
 2989SOL    HW112179   4.220   4.549   3.163
 2989SOL    HW212180   4.092   4.450   3.140
 2990SOL     OW12181   4.091   4.824   2.363
 2990SOL    HW112182   4.084   4.907   2.307
 2990SOL    HW212183   4.095   4.744   2.303
 2991SOL     OW12184   4.290   4.261   2.727
 2991SOL    HW112185   4.302   4.327   2.653
 2991SOL    HW212186   4.336   4.295   2.810
 2992SOL     OW12187   4.126   4.475   3.460
 2992SOL    HW112188   4.194   4.530   3.413
 2992SOL    HW212189   4.166   4.387   3.487
 2993SOL     OW12190   4.737   3.829   3.632
 2993SOL    HW112191   4.743   3.914   3.580
 2993SOL    HW212192   4.769   3.753   3.575
 2994SOL     OW12193   4.228   3.774   3.602
 2994SOL    HW112194   4.186   3.717   3.532
 2994SOL    HW212195   4.162   3.843   3.634
 2995SOL     OW12196   4.297   4.594   2.891
 2995SOL    HW112197   4.341   4.683   2.882
 2995SOL    HW212198   4.234   4.594   2.968
 2996SOL     OW12199   5.084   4.586   2.907
 2996SOL    HW112200   5.009   4.586   2.841
 2996SOL    HW212201   5.121   4.494   2.916
 2997SOL     OW12202   4.933   4.249   2.137
 2997SOL    HW112203   4.946   4.165   2.191
 2997SOL    HW212204   4.904   4.323   2.197
 2998SOL     OW12205   4.031   3.937   3.093
 2998SOL    HW112206   4.008   3.974   3.183
 2998SOL    HW212207   4.001   3.842   3.087
 2999SOL     OW12208   4.456   4.358   2.926
 2999SOL    HW112209   4.515   4.332   2.850
 2999SOL    HW212210   4.428   4.454   2.915
 3000SOL     OW12211   4.031   3.787   2.480
 3000SOL    HW112212   4.020   3.881   2.513
 3000SOL    HW212213   4.026   3.724   2.557
 3001SOL     OW12214   4.747   4.490   2.828
 3001SOL    HW112215   4.762   4.511   2.924
 3001SOL    HW212216   4.717   4.395   2.819
 3002SOL     OW12217   4.074   4.622   3.666
 3002SOL    HW112218   4.150   4.666   3.714
 3002SOL    HW212219   4.109   4.575   3.584
 3003SOL     OW12220   5.264   3.998   1.987
 3003SOL    HW112221   5.203   3.923   2.010
 3003SOL    HW212222   5.286   4.050   2.070
 3004SOL     OW12223   4.043   4.534   2.811
 3004SOL    HW112224   4.136   4.570   2.816
 3004SOL    HW212225   4.037   4.449   2.863
 3005SOL     OW12226   4.063   4.233   2.868
 3005SOL    HW112227   4.011   4.150   2.851
 3005SOL    HW212228   4.140   4.238   2.804
 3006SOL     OW12229   4.862   4.104   3.540
 3006SOL    HW112230   4.817   4.167   3.604
 3006SOL    HW212231   4.955   4.135   3.523
 3007SOL     OW12232   4.884   3.931   3.339
 3007SOL    HW112233   4.884   3.995   3.416
 3007SOL    HW212234   4.912   3.979   3.256
 3008SOL     OW12235   3.732   5.050   2.062
 3008SOL    HW112236   3.639   5.071   2.031
 3008SOL    HW212237   3.742   4.951   2.075
 3009SOL     OW12238   4.726   4.520   3.100
 3009SOL    HW112239   4.767   4.488   3.186
 3009SOL    HW212240   4.630   4.493   3.097
 3010SOL     OW12241   3.764   4.268   2.976
 3010SOL    HW112242   3.849   4.235   2.935
 3010SOL    HW212243   3.777   4.283   3.074
 3011SOL     OW12244   3.913   4.244   3.584
 3011SOL    HW112245   3.972   4.204   3.514
 3011SOL    HW212246   3.855   4.315   3.543
 3012SOL     OW12247   4.539   4.296   2.187
 3012SOL    HW112248   4.546   4.207   2.141
 3012SOL    HW212249   4.445   4.330   2.179
 3013SOL     OW12250   4.395   4.188   3.131
 3013SOL    HW112251   4.361   4.099   3.101
 3013SOL    HW212252   4.421   4.242   3.051
 3014SOL     OW12253   4.197   4.224   2.053
 3014SOL    HW112254   4.258   4.304   2.057
 3014SOL    HW212255   4.102   4.255   2.060
 3015SOL     OW12256   3.883   4.861   3.328
 3015SOL    HW112257   3.905   4.800   3.404
 3015SOL    HW212258   3.893   4.812   3.242
 3016SOL     OW12259   3.807   4.982   2.884
 3016SOL    HW112260   3.802   4.981   2.984
 3016SOL    HW212261   3.724   4.941   2.846
 3017SOL     OW12262   3.987   4.050   2.582
 3017SOL    HW112263   3.908   4.101   2.548
 3017SOL    HW212264   3.978   4.035   2.680
 3018SOL     OW12265   4.546   4.726   3.234
 3018SOL    HW112266   4.586   4.725   3.142
 3018SOL    HW212267   4.556   4.818   3.274
 3019SOL     OW12268   4.640   4.634   2.153
 3019SOL    HW112269   4.703   4.672   2.085
 3019SOL    HW212270   4.680   4.551   2.192
 3020SOL     OW12271   4.096   5.012   3.352
 3020SOL    HW112272   4.083   5.105   3.318
 3020SOL    HW212273   4.012   4.960   3.339
 3021SOL     OW12274   4.763   4.822   2.558
 3021SOL    HW112275   4.693   4.775   2.612
 3021SOL    HW212276   4.822   4.754   2.515
 3022SOL     OW12277   4.738   3.960   2.833
 3022SOL    HW112278   4.730   3.924   2.740
 3022SOL    HW212279   4.736   3.884   2.898
 3023SOL     OW12280   3.829   4.737   3.588
 3023SOL    HW112281   3.752   4.704   3.642
 3023SOL    HW212282   3.914   4.707   3.630
 3024SOL     OW12283   4.396   3.927   3.351
 3024SOL    HW112284   4.486   3.911   3.311
 3024SOL    HW212285   4.404   3.932   3.450
 3025SOL     OW12286   3.799   4.069   1.895
 3025SOL    HW112287   3.707   4.041   1.866
 3025SOL    HW212288   3.830   4.146   1.839
 3026SOL     OW12289   3.796   3.890   2.180
 3026SOL    HW112290   3.779   3.973   2.126
 3026SOL    HW212291   3.886   3.853   2.158
 3027SOL     OW12292   4.337   4.566   3.293
 3027SOL    HW112293   4.393   4.647   3.276
 3027SOL    HW212294   4.396   4.486   3.296
 3028SOL     OW12295   4.440   4.289   3.570
 3028SOL    HW112296   4.459   4.354   3.644
 3028SOL    HW212297   4.500   4.209   3.579
 3029SOL     OW12298   4.318   4.469   2.514
 3029SOL    HW112299   4.368   4.554   2.495
 3029SOL    HW212300   4.230   4.471   2.466
 3030SOL     OW12301   4.583   4.680   2.723
 3030SOL    HW112302   4.637   4.611   2.771
 3030SOL    HW212303   4.551   4.749   2.789
 3031SOL     OW12304   4.807   4.708   1.949
 3031SOL    HW112305   4.784   4.761   1.867
 3031SOL    HW212306   4.888   4.652   1.930
 3032SOL     OW12307   3.803   4.964   2.515
 3032SOL    HW112308   3.802   4.917   2.603
 3032SOL    HW212309   3.885   4.936   2.464
 3033SOL     OW12310   4.152   4.148   2.382
 3033SOL    HW112311   4.182   4.076   2.320
 3033SOL    HW212312   4.113   4.108   2.465
 3034SOL     OW12313   4.041   4.271   3.142
 3034SOL    HW112314   4.079   4.212   3.214
 3034SOL    HW212315   4.081   4.245   3.054
 3035SOL     OW12316   4.725   3.758   3.016
 3035SOL    HW112317   4.662   3.686   2.985
 3035SOL    HW212318   4.818   3.722   3.016
 3036SOL     OW12319   4.494   5.054   2.163
 3036SOL    HW112320   4.448   4.967   2.180
 3036SOL    HW212321   4.585   5.051   2.204
 3037SOL     OW12322   3.763   4.801   2.162
 3037SOL    HW112323   3.862   4.790   2.153
 3037SOL    HW212324   3.723   4.715   2.194
 3038SOL     OW12325   3.954   4.352   3.837
 3038SOL    HW112326   3.861   4.350   3.874
 3038SOL    HW212327   3.955   4.313   3.745
 3039SOL     OW12328   3.949   3.999   4.720
 3039SOL    HW112329   3.984   3.982   4.812
 3039SOL    HW212330   3.861   3.954   4.708
 3040SOL     OW12331   3.743   4.092   4.371
 3040SOL    HW112332   3.661   4.135   4.410
 3040SOL    HW212333   3.715   4.019   4.308
 3041SOL     OW12334   4.859   4.427   4.441
 3041SOL    HW112335   4.916   4.505   4.416
 3041SOL    HW212336   4.799   4.453   4.517
 3042SOL     OW12337   4.492   4.868   4.747
 3042SOL    HW112338   4.414   4.885   4.807
 3042SOL    HW212339   4.526   4.955   4.711
 3043SOL     OW12340   4.409   4.736   4.389
 3043SOL    HW112341   4.478   4.720   4.459
 3043SOL    HW212342   4.336   4.793   4.427
 3044SOL     OW12343   3.964   4.815   4.610
 3044SOL    HW112344   3.978   4.731   4.662
 3044SOL    HW212345   3.909   4.879   4.665
 3045SOL     OW12346   4.330   4.688   3.847
 3045SOL    HW112347   4.337   4.772   3.793
 3045SOL    HW212348   4.376   4.701   3.935
 3046SOL     OW12349   3.846   4.367   4.287
 3046SOL    HW112350   3.801   4.279   4.304
 3046SOL    HW212351   3.845   4.421   4.371
 3047SOL     OW12352   4.533   3.728   4.226
 3047SOL    HW112353   4.573   3.819   4.217
 3047SOL    HW212354   4.433   3.736   4.232
 3048SOL     OW12355   3.921   4.700   4.988
 3048SOL    HW112356   4.010   4.655   4.974
 3048SOL    HW212357   3.848   4.635   4.969
 3049SOL     OW12358   4.322   4.453   3.994
 3049SOL    HW112359   4.346   4.522   3.926
 3049SOL    HW212360   4.244   4.486   4.048
 3050SOL     OW12361   4.765   4.425   4.153
 3050SOL    HW112362   4.791   4.421   4.249
 3050SOL    HW212363   4.680   4.374   4.139
 3051SOL     OW12364   3.800   4.535   4.513
 3051SOL    HW112365   3.899   4.523   4.522
 3051SOL    HW212366   3.776   4.630   4.534
 3052SOL     OW12367   4.589   4.072   3.919
 3052SOL    HW112368   4.648   4.135   3.870
 3052SOL    HW212369   4.608   3.978   3.890
 3053SOL     OW12370   4.274   3.920   4.609
 3053SOL    HW112371   4.269   3.915   4.709
 3053SOL    HW212372   4.276   4.016   4.580
 3054SOL     OW12373   4.045   4.667   3.966
 3054SOL    HW112374   4.127   4.706   3.924
 3054SOL    HW212375   4.018   4.585   3.917
 3055SOL     OW12376   4.106   4.424   4.204
 3055SOL    HW112377   4.151   4.334   4.201
 3055SOL    HW212378   4.012   4.413   4.237
 3056SOL     OW12379   4.338   3.846   3.841
 3056SOL    HW112380   4.436   3.824   3.848
 3056SOL    HW212381   4.307   3.829   3.748
 3057SOL     OW12382   4.646   4.227   4.623
 3057SOL    HW112383   4.621   4.218   4.527
 3057SOL    HW212384   4.694   4.145   4.654
 3058SOL     OW12385   4.263   3.788   4.236
 3058SOL    HW112386   4.182   3.789   4.294
 3058SOL    HW212387   4.266   3.871   4.181
 3059SOL     OW12388   5.158   4.912   3.765
 3059SOL    HW112389   5.190   4.836   3.822
 3059SOL    HW212390   5.066   4.939   3.795
 3060SOL     OW12391   4.021   3.759   3.895
 3060SOL    HW112392   4.070   3.843   3.874
 3060SOL    HW212393   4.083   3.694   3.940
 3061SOL     OW12394   4.659   3.960   4.204
 3061SOL    HW112395   4.611   4.001   4.126
 3061SOL    HW212396   4.758   3.958   4.185
 3062SOL     OW12397   4.183   4.876   4.465
 3062SOL    HW112398   4.112   4.849   4.530
 3062SOL    HW212399   4.157   4.848   4.372
 3063SOL     OW12400   4.756   4.273   3.740
 3063SOL    HW112401   4.715   4.355   3.701
 3063SOL    HW212402   4.820   4.299   3.813
 3064SOL     OW12403   4.590   4.178   4.366
 3064SOL    HW112404   4.558   4.250   4.304
 3064SOL    HW212405   4.614   4.097   4.313
 3065SOL     OW12406   4.741   3.763   4.477
 3065SOL    HW112407   4.669   3.768   4.408
 3065SOL    HW212408   4.717   3.694   4.546
 3066SOL     OW12409   4.251   3.980   4.052
 3066SOL    HW112410   4.278   3.921   3.977
 3066SOL    HW212411   4.251   4.075   4.021
 3067SOL     OW12412   4.429   4.774   4.092
 3067SOL    HW112413   4.415   4.781   4.191
 3067SOL    HW212414   4.513   4.723   4.074
 3068SOL     OW12415   4.134   4.537   4.975
 3068SOL    HW112416   4.220   4.549   5.025
 3068SOL    HW212417   4.092   4.450   5.002
 3069SOL     OW12418   4.091   4.824   4.225
 3069SOL    HW112419   4.084   4.907   4.169
 3069SOL    HW212420   4.095   4.744   4.165
 3070SOL     OW12421   4.290   4.261   4.589
 3070SOL    HW112422   4.302   4.327   4.515
 3070SOL    HW212423   4.336   4.295   4.672
 3071SOL     OW12424   4.297   4.594   4.753
 3071SOL    HW112425   4.341   4.683   4.744
 3071SOL    HW212426   4.234   4.594   4.830
 3072SOL     OW12427   5.084   4.586   4.769
 3072SOL    HW112428   5.009   4.586   4.703
 3072SOL    HW212429   5.121   4.494   4.778
 3073SOL     OW12430   4.933   4.249   3.999
 3073SOL    HW112431   4.946   4.165   4.053
 3073SOL    HW212432   4.904   4.323   4.059
 3074SOL     OW12433   4.031   3.937   4.955
 3074SOL    HW112434   4.008   3.974   5.045
 3074SOL    HW212435   4.001   3.842   4.949
 3075SOL     OW12436   4.456   4.358   4.788
 3075SOL    HW112437   4.515   4.332   4.712
 3075SOL    HW212438   4.428   4.454   4.777
 3076SOL     OW12439   4.031   3.787   4.342
 3076SOL    HW112440   4.020   3.881   4.375
 3076SOL    HW212441   4.026   3.724   4.419
 3077SOL     OW12442   4.747   4.490   4.690
 3077SOL    HW112443   4.762   4.511   4.786
 3077SOL    HW212444   4.717   4.395   4.681
 3078SOL     OW12445   5.264   3.998   3.849
 3078SOL    HW112446   5.203   3.923   3.872
 3078SOL    HW212447   5.286   4.050   3.932
 3079SOL     OW12448   4.043   4.534   4.673
 3079SOL    HW112449   4.136   4.570   4.678
 3079SOL    HW212450   4.037   4.449   4.725
 3080SOL     OW12451   4.063   4.233   4.730
 3080SOL    HW112452   4.011   4.150   4.713
 3080SOL    HW212453   4.140   4.238   4.666
 3081SOL     OW12454   4.884   3.931   5.201
 3081SOL    HW112455   4.884   3.995   5.278
 3081SOL    HW212456   4.912   3.979   5.118
 3082SOL     OW12457   3.732   5.050   3.924
 3082SOL    HW112458   3.639   5.071   3.893
 3082SOL    HW212459   3.742   4.951   3.937
 3083SOL     OW12460   4.726   4.520   4.962
 3083SOL    HW112461   4.767   4.488   5.048
 3083SOL    HW212462   4.630   4.493   4.959
 3084SOL     OW12463   3.764   4.268   4.838
 3084SOL    HW112464   3.849   4.235   4.797
 3084SOL    HW212465   3.777   4.283   4.936
 3085SOL     OW12466   4.539   4.296   4.049
 3085SOL    HW112467   4.546   4.207   4.003
 3085SOL    HW212468   4.445   4.330   4.041
 3086SOL     OW12469   4.395   4.188   4.993
 3086SOL    HW112470   4.361   4.099   4.963
 3086SOL    HW212471   4.421   4.242   4.913
 3087SOL     OW12472   4.197   4.224   3.915
 3087SOL    HW112473   4.258   4.304   3.919
 3087SOL    HW212474   4.102   4.255   3.922
 3088SOL     OW12475   3.883   4.861   5.190
 3088SOL    HW112476   3.905   4.800   5.266
 3088SOL    HW212477   3.893   4.812   5.104
 3089SOL     OW12478   3.807   4.982   4.746
 3089SOL    HW112479   3.802   4.981   4.846
 3089SOL    HW212480   3.724   4.941   4.708
 3090SOL     OW12481   3.987   4.050   4.444
 3090SOL    HW112482   3.908   4.101   4.410
 3090SOL    HW212483   3.978   4.035   4.542
 3091SOL     OW12484   4.546   4.726   5.096
 3091SOL    HW112485   4.586   4.725   5.004
 3091SOL    HW212486   4.556   4.818   5.136
 3092SOL     OW12487   4.640   4.634   4.015
 3092SOL    HW112488   4.703   4.672   3.947
 3092SOL    HW212489   4.680   4.551   4.054
 3093SOL     OW12490   4.763   4.822   4.420
 3093SOL    HW112491   4.693   4.775   4.474
 3093SOL    HW212492   4.822   4.754   4.377
 3094SOL     OW12493   4.738   3.960   4.695
 3094SOL    HW112494   4.730   3.924   4.602
 3094SOL    HW212495   4.736   3.884   4.760
 3095SOL     OW12496   3.799   4.069   3.757
 3095SOL    HW112497   3.707   4.041   3.728
 3095SOL    HW212498   3.830   4.146   3.701
 3096SOL     OW12499   3.796   3.890   4.042
 3096SOL    HW112500   3.779   3.973   3.988
 3096SOL    HW212501   3.886   3.853   4.020
 3097SOL     OW12502   4.318   4.469   4.376
 3097SOL    HW112503   4.368   4.554   4.357
 3097SOL    HW212504   4.230   4.471   4.328
 3098SOL     OW12505   4.583   4.680   4.585
 3098SOL    HW112506   4.637   4.611   4.633
 3098SOL    HW212507   4.551   4.749   4.651
 3099SOL     OW12508   4.807   4.708   3.811
 3099SOL    HW112509   4.784   4.761   3.729
 3099SOL    HW212510   4.888   4.652   3.792
 3100SOL     OW12511   3.803   4.964   4.377
 3100SOL    HW112512   3.802   4.917   4.465
 3100SOL    HW212513   3.885   4.936   4.326
 3101SOL     OW12514   4.152   4.148   4.244
 3101SOL    HW112515   4.182   4.076   4.182
 3101SOL    HW212516   4.113   4.108   4.327
 3102SOL     OW12517   4.725   3.758   4.878
 3102SOL    HW112518   4.662   3.686   4.847
 3102SOL    HW212519   4.818   3.722   4.878
 3103SOL     OW12520   4.494   5.054   4.025
 3103SOL    HW112521   4.448   4.967   4.042
 3103SOL    HW212522   4.585   5.051   4.066
 3104SOL     OW12523   3.763   4.801   4.024
 3104SOL    HW112524   3.862   4.790   4.015
 3104SOL    HW212525   3.723   4.715   4.056
   5.00000   5.00000   5.00000
