Spherical Glycine cluster of radius 0.4 nm
   40
    1GLY      N    1   2.222   2.321   2.327
    1GLY     CA    2   2.188   2.448   2.258
    1GLY      C    3   2.180   2.429   2.106
    1GLY      O    4   2.232   2.323   2.058
    1GLY     O1    5   2.128   2.523   2.040
    1GLY     H1    6   2.224   2.332   2.432
    1GLY     H2    7   2.148   2.250   2.303
    1GLY    HA1    8   2.092   2.486   2.298
    1GLY    HA2    9   2.267   2.522   2.280
    1GLY     H3   10   2.315   2.285   2.295
    1GLY      N   11   2.480   2.206   2.510
    1GLY     CA   12   2.608   2.172   2.441
    1GLY      C   13   2.595   2.188   2.289
    1GLY      O   14   2.478   2.197   2.241
    1GLY     O1   15   2.702   2.187   2.224
    1GLY     H1   16   2.489   2.199   2.615
    1GLY     H2   17   2.456   2.306   2.486
    1GLY    HA1   18   2.688   2.236   2.481
    1GLY    HA2   19   2.632   2.067   2.464
    1GLY     H3   20   2.403   2.144   2.478
    1GLY      N   21   2.604   2.650   2.693
    1GLY     CA   22   2.511   2.557   2.624
    1GLY      C   23   2.531   2.560   2.472
    1GLY      O   24   2.597   2.657   2.424
    1GLY     O1   25   2.477   2.467   2.407
    1GLY     H1   26   2.594   2.647   2.798
    1GLY     H2   27   2.703   2.621   2.669
    1GLY    HA1   28   2.526   2.455   2.664
    1GLY    HA2   29   2.408   2.588   2.647
    1GLY     H3   30   2.589   2.749   2.661
    1GLY      N   31   2.128   2.817   2.510
    1GLY     CA   32   2.255   2.783   2.441
    1GLY      C   33   2.242   2.798   2.289
    1GLY      O   34   2.125   2.807   2.241
    1GLY     O1   35   2.350   2.797   2.224
    1GLY     H1   36   2.136   2.809   2.615
    1GLY     H2   37   2.104   2.916   2.486
    1GLY    HA1   38   2.336   2.846   2.481
    1GLY    HA2   39   2.280   2.677   2.464
    1GLY     H3   40   2.050   2.754   2.478
   5.00000  5.00000  5.00000  