Spherical Glycine cluster of radius 1.8 nm
12436
    1GLY      N    1   1.517   1.100   2.327
    1GLY     CA    2   1.483   1.228   2.258
    1GLY      C    3   1.476   1.209   2.106
    1GLY      O    4   1.527   1.103   2.058
    1GLY     O1    5   1.423   1.302   2.040
    1GLY     H1    6   1.520   1.111   2.432
    1GLY     H2    7   1.443   1.029   2.303
    1GLY    HA1    8   1.388   1.266   2.298
    1GLY    HA2    9   1.562   1.302   2.280
    1GLY     H3   10   1.610   1.064   2.295
    1GLY      N   11   1.517   1.100   2.876
    1GLY     CA   12   1.483   1.228   2.807
    1GLY      C   13   1.476   1.209   2.655
    1GLY      O   14   1.527   1.103   2.607
    1GLY     O1   15   1.423   1.302   2.590
    1GLY     H1   16   1.520   1.111   2.981
    1GLY     H2   17   1.443   1.029   2.852
    1GLY    HA1   18   1.388   1.266   2.847
    1GLY    HA2   19   1.562   1.302   2.830
    1GLY     H3   20   1.610   1.064   2.844
    1GLY      N   21   1.165   1.711   1.778
    1GLY     CA   22   1.131   1.838   1.709
    1GLY      C   23   1.123   1.819   1.557
    1GLY      O   24   1.175   1.713   1.508
    1GLY     O1   25   1.071   1.912   1.491
    1GLY     H1   26   1.167   1.722   1.882
    1GLY     H2   27   1.091   1.640   1.753
    1GLY    HA1   28   1.035   1.876   1.749
    1GLY    HA2   29   1.210   1.912   1.731
    1GLY     H3   30   1.258   1.675   1.746
    1GLY      N   31   1.165   1.711   2.327
    1GLY     CA   32   1.131   1.838   2.258
    1GLY      C   33   1.123   1.819   2.106
    1GLY      O   34   1.175   1.713   2.058
    1GLY     O1   35   1.071   1.912   2.040
    1GLY     H1   36   1.167   1.722   2.432
    1GLY     H2   37   1.091   1.640   2.303
    1GLY    HA1   38   1.035   1.876   2.298
    1GLY    HA2   39   1.210   1.912   2.280
    1GLY     H3   40   1.258   1.675   2.295
    1GLY      N   41   1.165   1.711   2.876
    1GLY     CA   42   1.131   1.838   2.807
    1GLY      C   43   1.123   1.819   2.655
    1GLY      O   44   1.175   1.713   2.607
    1GLY     O1   45   1.071   1.912   2.590
    1GLY     H1   46   1.167   1.722   2.981
    1GLY     H2   47   1.091   1.640   2.852
    1GLY    HA1   48   1.035   1.876   2.847
    1GLY    HA2   49   1.210   1.912   2.830
    1GLY     H3   50   1.258   1.675   2.844
    1GLY      N   51   1.165   1.711   3.425
    1GLY     CA   52   1.131   1.838   3.356
    1GLY      C   53   1.123   1.819   3.204
    1GLY      O   54   1.175   1.713   3.156
    1GLY     O1   55   1.071   1.912   3.139
    1GLY     H1   56   1.167   1.722   3.530
    1GLY     H2   57   1.091   1.640   3.401
    1GLY    HA1   58   1.035   1.876   3.396
    1GLY    HA2   59   1.210   1.912   3.379
    1GLY     H3   60   1.258   1.675   3.393
    1GLY      N   61   0.813   2.321   2.327
    1GLY     CA   62   0.778   2.448   2.258
    1GLY      C   63   0.771   2.429   2.106
    1GLY      O   64   0.823   2.323   2.058
    1GLY     O1   65   0.718   2.523   2.040
    1GLY     H1   66   0.815   2.332   2.432
    1GLY     H2   67   0.738   2.250   2.303
    1GLY    HA1   68   0.683   2.486   2.298
    1GLY    HA2   69   0.857   2.522   2.280
    1GLY     H3   70   0.906   2.285   2.295
    1GLY      N   71   0.813   2.321   2.876
    1GLY     CA   72   0.778   2.448   2.807
    1GLY      C   73   0.771   2.429   2.655
    1GLY      O   74   0.823   2.323   2.607
    1GLY     O1   75   0.718   2.523   2.590
    1GLY     H1   76   0.815   2.332   2.981
    1GLY     H2   77   0.738   2.250   2.852
    1GLY    HA1   78   0.683   2.486   2.847
    1GLY    HA2   79   0.857   2.522   2.830
    1GLY     H3   80   0.906   2.285   2.844
    1GLY      N   81   1.900   1.430   1.594
    1GLY     CA   82   1.806   1.336   1.526
    1GLY      C   83   1.827   1.340   1.374
    1GLY      O   84   1.892   1.437   1.325
    1GLY     O1   85   1.772   1.247   1.308
    1GLY     H1   86   1.889   1.426   1.699
    1GLY     H2   87   1.998   1.401   1.570
    1GLY    HA1   88   1.821   1.235   1.566
    1GLY    HA2   89   1.703   1.368   1.548
    1GLY     H3   90   1.884   1.528   1.563
    1GLY      N   91   1.423   1.596   1.411
    1GLY     CA   92   1.551   1.562   1.343
    1GLY      C   93   1.538   1.578   1.191
    1GLY      O   94   1.421   1.586   1.142
    1GLY     O1   95   1.645   1.577   1.125
    1GLY     H1   96   1.432   1.589   1.516
    1GLY     H2   97   1.399   1.696   1.387
    1GLY    HA1   98   1.631   1.626   1.383
    1GLY    HA2   99   1.575   1.457   1.365
    1GLY     H3  100   1.346   1.534   1.380
    1GLY      N  101   2.222   1.100   1.778
    1GLY     CA  102   2.188   1.228   1.709
    1GLY      C  103   2.180   1.209   1.557
    1GLY      O  104   2.232   1.103   1.508
    1GLY     O1  105   2.128   1.302   1.491
    1GLY     H1  106   2.224   1.111   1.882
    1GLY     H2  107   2.148   1.029   1.753
    1GLY    HA1  108   2.092   1.266   1.749
    1GLY    HA2  109   2.267   1.302   1.731
    1GLY     H3  110   2.315   1.064   1.746
    1GLY      N  111   1.900   1.430   2.144
    1GLY     CA  112   1.806   1.336   2.075
    1GLY      C  113   1.827   1.340   1.923
    1GLY      O  114   1.892   1.437   1.875
    1GLY     O1  115   1.772   1.247   1.857
    1GLY     H1  116   1.889   1.426   2.249
    1GLY     H2  117   1.998   1.401   2.120
    1GLY    HA1  118   1.821   1.235   2.115
    1GLY    HA2  119   1.703   1.368   2.097
    1GLY     H3  120   1.884   1.528   2.112
    1GLY      N  121   1.423   1.596   1.961
    1GLY     CA  122   1.551   1.562   1.892
    1GLY      C  123   1.538   1.578   1.740
    1GLY      O  124   1.421   1.586   1.691
    1GLY     O1  125   1.645   1.577   1.674
    1GLY     H1  126   1.432   1.589   2.065
    1GLY     H2  127   1.399   1.696   1.936
    1GLY    HA1  128   1.631   1.626   1.932
    1GLY    HA2  129   1.575   1.457   1.914
    1GLY     H3  130   1.346   1.534   1.929
    1GLY      N  131   2.222   1.100   2.327
    1GLY     CA  132   2.188   1.228   2.258
    1GLY      C  133   2.180   1.209   2.106
    1GLY      O  134   2.232   1.103   2.058
    1GLY     O1  135   2.128   1.302   2.040
    1GLY     H1  136   2.224   1.111   2.432
    1GLY     H2  137   2.148   1.029   2.303
    1GLY    HA1  138   2.092   1.266   2.298
    1GLY    HA2  139   2.267   1.302   2.280
    1GLY     H3  140   2.315   1.064   2.295
    1GLY      N  141   1.900   1.430   2.693
    1GLY     CA  142   1.806   1.336   2.624
    1GLY      C  143   1.827   1.340   2.472
    1GLY      O  144   1.892   1.437   2.424
    1GLY     O1  145   1.772   1.247   2.407
    1GLY     H1  146   1.889   1.426   2.798
    1GLY     H2  147   1.998   1.401   2.669
    1GLY    HA1  148   1.821   1.235   2.664
    1GLY    HA2  149   1.703   1.368   2.647
    1GLY     H3  150   1.884   1.528   2.661
    1GLY      N  151   1.423   1.596   2.510
    1GLY     CA  152   1.551   1.562   2.441
    1GLY      C  153   1.538   1.578   2.289
    1GLY      O  154   1.421   1.586   2.241
    1GLY     O1  155   1.645   1.577   2.224
    1GLY     H1  156   1.432   1.589   2.615
    1GLY     H2  157   1.399   1.696   2.486
    1GLY    HA1  158   1.631   1.626   2.481
    1GLY    HA2  159   1.575   1.457   2.464
    1GLY     H3  160   1.346   1.534   2.478
    1GLY      N  161   2.222   1.100   2.876
    1GLY     CA  162   2.188   1.228   2.807
    1GLY      C  163   2.180   1.209   2.655
    1GLY      O  164   2.232   1.103   2.607
    1GLY     O1  165   2.128   1.302   2.590
    1GLY     H1  166   2.224   1.111   2.981
    1GLY     H2  167   2.148   1.029   2.852
    1GLY    HA1  168   2.092   1.266   2.847
    1GLY    HA2  169   2.267   1.302   2.830
    1GLY     H3  170   2.315   1.064   2.844
    1GLY      N  171   1.900   1.430   3.242
    1GLY     CA  172   1.806   1.336   3.173
    1GLY      C  173   1.827   1.340   3.021
    1GLY      O  174   1.892   1.437   2.973
    1GLY     O1  175   1.772   1.247   2.956
    1GLY     H1  176   1.889   1.426   3.347
    1GLY     H2  177   1.998   1.401   3.218
    1GLY    HA1  178   1.821   1.235   3.213
    1GLY    HA2  179   1.703   1.368   3.196
    1GLY     H3  180   1.884   1.528   3.210
    1GLY      N  181   1.423   1.596   3.059
    1GLY     CA  182   1.551   1.562   2.990
    1GLY      C  183   1.538   1.578   2.838
    1GLY      O  184   1.421   1.586   2.790
    1GLY     O1  185   1.645   1.577   2.773
    1GLY     H1  186   1.432   1.589   3.164
    1GLY     H2  187   1.399   1.696   3.035
    1GLY    HA1  188   1.631   1.626   3.030
    1GLY    HA2  189   1.575   1.457   3.013
    1GLY     H3  190   1.346   1.534   3.027
    1GLY      N  191   2.222   1.100   3.425
    1GLY     CA  192   2.188   1.228   3.356
    1GLY      C  193   2.180   1.209   3.204
    1GLY      O  194   2.232   1.103   3.156
    1GLY     O1  195   2.128   1.302   3.139
    1GLY     H1  196   2.224   1.111   3.530
    1GLY     H2  197   2.148   1.029   3.401
    1GLY    HA1  198   2.092   1.266   3.396
    1GLY    HA2  199   2.267   1.302   3.379
    1GLY     H3  200   2.315   1.064   3.393
    1GLY      N  201   1.423   1.596   3.608
    1GLY     CA  202   1.551   1.562   3.539
    1GLY      C  203   1.538   1.578   3.387
    1GLY      O  204   1.421   1.586   3.339
    1GLY     O1  205   1.645   1.577   3.322
    1GLY     H1  206   1.432   1.589   3.713
    1GLY     H2  207   1.399   1.696   3.584
    1GLY    HA1  208   1.631   1.626   3.579
    1GLY    HA2  209   1.575   1.457   3.562
    1GLY     H3  210   1.346   1.534   3.576
    1GLY      N  211   1.870   1.711   1.228
    1GLY     CA  212   1.835   1.838   1.160
    1GLY      C  213   1.828   1.819   1.008
    1GLY      O  214   1.879   1.713   0.959
    1GLY     O1  215   1.775   1.912   0.942
    1GLY     H1  216   1.872   1.722   1.333
    1GLY     H2  217   1.795   1.640   1.204
    1GLY    HA1  218   1.740   1.876   1.200
    1GLY    HA2  219   1.914   1.912   1.182
    1GLY     H3  220   1.963   1.675   1.197
    1GLY      N  221   1.547   2.040   1.594
    1GLY     CA  222   1.454   1.946   1.526
    1GLY      C  223   1.474   1.950   1.374
    1GLY      O  224   1.540   2.047   1.325
    1GLY     O1  225   1.420   1.857   1.308
    1GLY     H1  226   1.537   2.036   1.699
    1GLY     H2  227   1.646   2.011   1.570
    1GLY    HA1  228   1.469   1.845   1.566
    1GLY    HA2  229   1.351   1.978   1.548
    1GLY     H3  230   1.532   2.138   1.563
    1GLY      N  231   1.071   2.206   1.411
    1GLY     CA  232   1.198   2.172   1.343
    1GLY      C  233   1.185   2.188   1.191
    1GLY      O  234   1.068   2.197   1.142
    1GLY     O1  235   1.293   2.187   1.125
    1GLY     H1  236   1.079   2.199   1.516
    1GLY     H2  237   1.047   2.306   1.387
    1GLY    HA1  238   1.279   2.236   1.383
    1GLY    HA2  239   1.223   2.067   1.365
    1GLY     H3  240   0.993   2.144   1.380
    1GLY      N  241   1.870   1.711   1.778
    1GLY     CA  242   1.835   1.838   1.709
    1GLY      C  243   1.828   1.819   1.557
    1GLY      O  244   1.879   1.713   1.508
    1GLY     O1  245   1.775   1.912   1.491
    1GLY     H1  246   1.872   1.722   1.882
    1GLY     H2  247   1.795   1.640   1.753
    1GLY    HA1  248   1.740   1.876   1.749
    1GLY    HA2  249   1.914   1.912   1.731
    1GLY     H3  250   1.963   1.675   1.746
    1GLY      N  251   1.547   2.040   2.144
    1GLY     CA  252   1.454   1.946   2.075
    1GLY      C  253   1.474   1.950   1.923
    1GLY      O  254   1.540   2.047   1.875
    1GLY     O1  255   1.420   1.857   1.857
    1GLY     H1  256   1.537   2.036   2.249
    1GLY     H2  257   1.646   2.011   2.120
    1GLY    HA1  258   1.469   1.845   2.115
    1GLY    HA2  259   1.351   1.978   2.097
    1GLY     H3  260   1.532   2.138   2.112
    1GLY      N  261   1.071   2.206   1.961
    1GLY     CA  262   1.198   2.172   1.892
    1GLY      C  263   1.185   2.188   1.740
    1GLY      O  264   1.068   2.197   1.691
    1GLY     O1  265   1.293   2.187   1.674
    1GLY     H1  266   1.079   2.199   2.065
    1GLY     H2  267   1.047   2.306   1.936
    1GLY    HA1  268   1.279   2.236   1.932
    1GLY    HA2  269   1.223   2.067   1.914
    1GLY     H3  270   0.993   2.144   1.929
    1GLY      N  271   1.870   1.711   2.327
    1GLY     CA  272   1.835   1.838   2.258
    1GLY      C  273   1.828   1.819   2.106
    1GLY      O  274   1.879   1.713   2.058
    1GLY     O1  275   1.775   1.912   2.040
    1GLY     H1  276   1.872   1.722   2.432
    1GLY     H2  277   1.795   1.640   2.303
    1GLY    HA1  278   1.740   1.876   2.298
    1GLY    HA2  279   1.914   1.912   2.280
    1GLY     H3  280   1.963   1.675   2.295
    1GLY      N  281   1.547   2.040   2.693
    1GLY     CA  282   1.454   1.946   2.624
    1GLY      C  283   1.474   1.950   2.472
    1GLY      O  284   1.540   2.047   2.424
    1GLY     O1  285   1.420   1.857   2.407
    1GLY     H1  286   1.537   2.036   2.798
    1GLY     H2  287   1.646   2.011   2.669
    1GLY    HA1  288   1.469   1.845   2.664
    1GLY    HA2  289   1.351   1.978   2.647
    1GLY     H3  290   1.532   2.138   2.661
    1GLY      N  291   1.071   2.206   2.510
    1GLY     CA  292   1.198   2.172   2.441
    1GLY      C  293   1.185   2.188   2.289
    1GLY      O  294   1.068   2.197   2.241
    1GLY     O1  295   1.293   2.187   2.224
    1GLY     H1  296   1.079   2.199   2.615
    1GLY     H2  297   1.047   2.306   2.486
    1GLY    HA1  298   1.279   2.236   2.481
    1GLY    HA2  299   1.223   2.067   2.464
    1GLY     H3  300   0.993   2.144   2.478
    1GLY      N  301   1.870   1.711   2.876
    1GLY     CA  302   1.835   1.838   2.807
    1GLY      C  303   1.828   1.819   2.655
    1GLY      O  304   1.879   1.713   2.607
    1GLY     O1  305   1.775   1.912   2.590
    1GLY     H1  306   1.872   1.722   2.981
    1GLY     H2  307   1.795   1.640   2.852
    1GLY    HA1  308   1.740   1.876   2.847
    1GLY    HA2  309   1.914   1.912   2.830
    1GLY     H3  310   1.963   1.675   2.844
    1GLY      N  311   1.547   2.040   3.242
    1GLY     CA  312   1.454   1.946   3.173
    1GLY      C  313   1.474   1.950   3.021
    1GLY      O  314   1.540   2.047   2.973
    1GLY     O1  315   1.420   1.857   2.956
    1GLY     H1  316   1.537   2.036   3.347
    1GLY     H2  317   1.646   2.011   3.218
    1GLY    HA1  318   1.469   1.845   3.213
    1GLY    HA2  319   1.351   1.978   3.196
    1GLY     H3  320   1.532   2.138   3.210
    1GLY      N  321   1.071   2.206   3.059
    1GLY     CA  322   1.198   2.172   2.990
    1GLY      C  323   1.185   2.188   2.838
    1GLY      O  324   1.068   2.197   2.790
    1GLY     O1  325   1.293   2.187   2.773
    1GLY     H1  326   1.079   2.199   3.164
    1GLY     H2  327   1.047   2.306   3.035
    1GLY    HA1  328   1.279   2.236   3.030
    1GLY    HA2  329   1.223   2.067   3.013
    1GLY     H3  330   0.993   2.144   3.027
    1GLY      N  331   1.870   1.711   3.425
    1GLY     CA  332   1.835   1.838   3.356
    1GLY      C  333   1.828   1.819   3.204
    1GLY      O  334   1.879   1.713   3.156
    1GLY     O1  335   1.775   1.912   3.139
    1GLY     H1  336   1.872   1.722   3.530
    1GLY     H2  337   1.795   1.640   3.401
    1GLY    HA1  338   1.740   1.876   3.396
    1GLY    HA2  339   1.914   1.912   3.379
    1GLY     H3  340   1.963   1.675   3.393
    1GLY      N  341   1.547   2.040   3.791
    1GLY     CA  342   1.454   1.946   3.722
    1GLY      C  343   1.474   1.950   3.570
    1GLY      O  344   1.540   2.047   3.522
    1GLY     O1  345   1.420   1.857   3.505
    1GLY     H1  346   1.537   2.036   3.896
    1GLY     H2  347   1.646   2.011   3.767
    1GLY    HA1  348   1.469   1.845   3.762
    1GLY    HA2  349   1.351   1.978   3.745
    1GLY     H3  350   1.532   2.138   3.759
    1GLY      N  351   1.071   2.206   3.608
    1GLY     CA  352   1.198   2.172   3.539
    1GLY      C  353   1.185   2.188   3.387
    1GLY      O  354   1.068   2.197   3.339
    1GLY     O1  355   1.293   2.187   3.322
    1GLY     H1  356   1.079   2.199   3.713
    1GLY     H2  357   1.047   2.306   3.584
    1GLY    HA1  358   1.279   2.236   3.579
    1GLY    HA2  359   1.223   2.067   3.562
    1GLY     H3  360   0.993   2.144   3.576
    1GLY      N  361   1.870   1.711   3.974
    1GLY     CA  362   1.835   1.838   3.905
    1GLY      C  363   1.828   1.819   3.754
    1GLY      O  364   1.879   1.713   3.705
    1GLY     O1  365   1.775   1.912   3.688
    1GLY     H1  366   1.872   1.722   4.079
    1GLY     H2  367   1.795   1.640   3.950
    1GLY    HA1  368   1.740   1.876   3.945
    1GLY    HA2  369   1.914   1.912   3.928
    1GLY     H3  370   1.963   1.675   3.942
    1GLY      N  371   1.517   2.321   1.228
    1GLY     CA  372   1.483   2.448   1.160
    1GLY      C  373   1.476   2.429   1.008
    1GLY      O  374   1.527   2.323   0.959
    1GLY     O1  375   1.423   2.523   0.942
    1GLY     H1  376   1.520   2.332   1.333
    1GLY     H2  377   1.443   2.250   1.204
    1GLY    HA1  378   1.388   2.486   1.200
    1GLY    HA2  379   1.562   2.522   1.182
    1GLY     H3  380   1.610   2.285   1.197
    1GLY      N  381   1.195   2.650   1.594
    1GLY     CA  382   1.102   2.557   1.526
    1GLY      C  383   1.122   2.560   1.374
    1GLY      O  384   1.188   2.657   1.325
    1GLY     O1  385   1.067   2.467   1.308
    1GLY     H1  386   1.184   2.647   1.699
    1GLY     H2  387   1.294   2.621   1.570
    1GLY    HA1  388   1.117   2.455   1.566
    1GLY    HA2  389   0.998   2.588   1.548
    1GLY     H3  390   1.180   2.749   1.563
    1GLY      N  391   1.517   2.321   1.778
    1GLY     CA  392   1.483   2.448   1.709
    1GLY      C  393   1.476   2.429   1.557
    1GLY      O  394   1.527   2.323   1.508
    1GLY     O1  395   1.423   2.523   1.491
    1GLY     H1  396   1.520   2.332   1.882
    1GLY     H2  397   1.443   2.250   1.753
    1GLY    HA1  398   1.388   2.486   1.749
    1GLY    HA2  399   1.562   2.522   1.731
    1GLY     H3  400   1.610   2.285   1.746
    1GLY      N  401   1.195   2.650   2.144
    1GLY     CA  402   1.102   2.557   2.075
    1GLY      C  403   1.122   2.560   1.923
    1GLY      O  404   1.188   2.657   1.875
    1GLY     O1  405   1.067   2.467   1.857
    1GLY     H1  406   1.184   2.647   2.249
    1GLY     H2  407   1.294   2.621   2.120
    1GLY    HA1  408   1.117   2.455   2.115
    1GLY    HA2  409   0.998   2.588   2.097
    1GLY     H3  410   1.180   2.749   2.112
    1GLY      N  411   0.719   2.817   1.961
    1GLY     CA  412   0.846   2.783   1.892
    1GLY      C  413   0.833   2.798   1.740
    1GLY      O  414   0.716   2.807   1.691
    1GLY     O1  415   0.941   2.797   1.674
    1GLY     H1  416   0.727   2.809   2.065
    1GLY     H2  417   0.694   2.916   1.936
    1GLY    HA1  418   0.927   2.846   1.932
    1GLY    HA2  419   0.871   2.677   1.914
    1GLY     H3  420   0.641   2.754   1.929
    1GLY      N  421   1.517   2.321   2.327
    1GLY     CA  422   1.483   2.448   2.258
    1GLY      C  423   1.476   2.429   2.106
    1GLY      O  424   1.527   2.323   2.058
    1GLY     O1  425   1.423   2.523   2.040
    1GLY     H1  426   1.520   2.332   2.432
    1GLY     H2  427   1.443   2.250   2.303
    1GLY    HA1  428   1.388   2.486   2.298
    1GLY    HA2  429   1.562   2.522   2.280
    1GLY     H3  430   1.610   2.285   2.295
    1GLY      N  431   1.195   2.650   2.693
    1GLY     CA  432   1.102   2.557   2.624
    1GLY      C  433   1.122   2.560   2.472
    1GLY      O  434   1.188   2.657   2.424
    1GLY     O1  435   1.067   2.467   2.407
    1GLY     H1  436   1.184   2.647   2.798
    1GLY     H2  437   1.294   2.621   2.669
    1GLY    HA1  438   1.117   2.455   2.664
    1GLY    HA2  439   0.998   2.588   2.647
    1GLY     H3  440   1.180   2.749   2.661
    1GLY      N  441   0.719   2.817   2.510
    1GLY     CA  442   0.846   2.783   2.441
    1GLY      C  443   0.833   2.798   2.289
    1GLY      O  444   0.716   2.807   2.241
    1GLY     O1  445   0.941   2.797   2.224
    1GLY     H1  446   0.727   2.809   2.615
    1GLY     H2  447   0.694   2.916   2.486
    1GLY    HA1  448   0.927   2.846   2.481
    1GLY    HA2  449   0.871   2.677   2.464
    1GLY     H3  450   0.641   2.754   2.478
    1GLY      N  451   1.517   2.321   2.876
    1GLY     CA  452   1.483   2.448   2.807
    1GLY      C  453   1.476   2.429   2.655
    1GLY      O  454   1.527   2.323   2.607
    1GLY     O1  455   1.423   2.523   2.590
    1GLY     H1  456   1.520   2.332   2.981
    1GLY     H2  457   1.443   2.250   2.852
    1GLY    HA1  458   1.388   2.486   2.847
    1GLY    HA2  459   1.562   2.522   2.830
    1GLY     H3  460   1.610   2.285   2.844
    1GLY      N  461   1.195   2.650   3.242
    1GLY     CA  462   1.102   2.557   3.173
    1GLY      C  463   1.122   2.560   3.021
    1GLY      O  464   1.188   2.657   2.973
    1GLY     O1  465   1.067   2.467   2.956
    1GLY     H1  466   1.184   2.647   3.347
    1GLY     H2  467   1.294   2.621   3.218
    1GLY    HA1  468   1.117   2.455   3.213
    1GLY    HA2  469   0.998   2.588   3.196
    1GLY     H3  470   1.180   2.749   3.210
    1GLY      N  471   0.719   2.817   3.059
    1GLY     CA  472   0.846   2.783   2.990
    1GLY      C  473   0.833   2.798   2.838
    1GLY      O  474   0.716   2.807   2.790
    1GLY     O1  475   0.941   2.797   2.773
    1GLY     H1  476   0.727   2.809   3.164
    1GLY     H2  477   0.694   2.916   3.035
    1GLY    HA1  478   0.927   2.846   3.030
    1GLY    HA2  479   0.871   2.677   3.013
    1GLY     H3  480   0.641   2.754   3.027
    1GLY      N  481   1.517   2.321   3.425
    1GLY     CA  482   1.483   2.448   3.356
    1GLY      C  483   1.476   2.429   3.204
    1GLY      O  484   1.527   2.323   3.156
    1GLY     O1  485   1.423   2.523   3.139
    1GLY     H1  486   1.520   2.332   3.530
    1GLY     H2  487   1.443   2.250   3.401
    1GLY    HA1  488   1.388   2.486   3.396
    1GLY    HA2  489   1.562   2.522   3.379
    1GLY     H3  490   1.610   2.285   3.393
    1GLY      N  491   1.517   2.321   3.974
    1GLY     CA  492   1.483   2.448   3.905
    1GLY      C  493   1.476   2.429   3.754
    1GLY      O  494   1.527   2.323   3.705
    1GLY     O1  495   1.423   2.523   3.688
    1GLY     H1  496   1.520   2.332   4.079
    1GLY     H2  497   1.443   2.250   3.950
    1GLY    HA1  498   1.388   2.486   3.945
    1GLY    HA2  499   1.562   2.522   3.928
    1GLY     H3  500   1.610   2.285   3.942
    1GLY      N  501   1.165   2.931   1.778
    1GLY     CA  502   1.131   3.058   1.709
    1GLY      C  503   1.123   3.039   1.557
    1GLY      O  504   1.175   2.934   1.508
    1GLY     O1  505   1.071   3.133   1.491
    1GLY     H1  506   1.167   2.942   1.882
    1GLY     H2  507   1.091   2.860   1.753
    1GLY    HA1  508   1.035   3.096   1.749
    1GLY    HA2  509   1.210   3.132   1.731
    1GLY     H3  510   1.258   2.895   1.746
    1GLY      N  511   1.165   2.931   2.327
    1GLY     CA  512   1.131   3.058   2.258
    1GLY      C  513   1.123   3.039   2.106
    1GLY      O  514   1.175   2.934   2.058
    1GLY     O1  515   1.071   3.133   2.040
    1GLY     H1  516   1.167   2.942   2.432
    1GLY     H2  517   1.091   2.860   2.303
    1GLY    HA1  518   1.035   3.096   2.298
    1GLY    HA2  519   1.210   3.132   2.280
    1GLY     H3  520   1.258   2.895   2.295
    1GLY      N  521   1.165   2.931   2.876
    1GLY     CA  522   1.131   3.058   2.807
    1GLY      C  523   1.123   3.039   2.655
    1GLY      O  524   1.175   2.934   2.607
    1GLY     O1  525   1.071   3.133   2.590
    1GLY     H1  526   1.167   2.942   2.981
    1GLY     H2  527   1.091   2.860   2.852
    1GLY    HA1  528   1.035   3.096   2.847
    1GLY    HA2  529   1.210   3.132   2.830
    1GLY     H3  530   1.258   2.895   2.844
    1GLY      N  531   1.165   2.931   3.425
    1GLY     CA  532   1.131   3.058   3.356
    1GLY      C  533   1.123   3.039   3.204
    1GLY      O  534   1.175   2.934   3.156
    1GLY     O1  535   1.071   3.133   3.139
    1GLY     H1  536   1.167   2.942   3.530
    1GLY     H2  537   1.091   2.860   3.401
    1GLY    HA1  538   1.035   3.096   3.396
    1GLY    HA2  539   1.210   3.132   3.379
    1GLY     H3  540   1.258   2.895   3.393
    1GLY      N  541   2.604   1.430   1.594
    1GLY     CA  542   2.511   1.336   1.526
    1GLY      C  543   2.531   1.340   1.374
    1GLY      O  544   2.597   1.437   1.325
    1GLY     O1  545   2.477   1.247   1.308
    1GLY     H1  546   2.594   1.426   1.699
    1GLY     H2  547   2.703   1.401   1.570
    1GLY    HA1  548   2.526   1.235   1.566
    1GLY    HA2  549   2.408   1.368   1.548
    1GLY     H3  550   2.589   1.528   1.563
    1GLY      N  551   2.128   1.596   1.411
    1GLY     CA  552   2.255   1.562   1.343
    1GLY      C  553   2.242   1.578   1.191
    1GLY      O  554   2.125   1.586   1.142
    1GLY     O1  555   2.350   1.577   1.125
    1GLY     H1  556   2.136   1.589   1.516
    1GLY     H2  557   2.104   1.696   1.387
    1GLY    HA1  558   2.336   1.626   1.383
    1GLY    HA2  559   2.280   1.457   1.365
    1GLY     H3  560   2.050   1.534   1.380
    1GLY      N  561   2.926   1.100   1.778
    1GLY     CA  562   2.892   1.228   1.709
    1GLY      C  563   2.885   1.209   1.557
    1GLY      O  564   2.936   1.103   1.508
    1GLY     O1  565   2.832   1.302   1.491
    1GLY     H1  566   2.929   1.111   1.882
    1GLY     H2  567   2.852   1.029   1.753
    1GLY    HA1  568   2.797   1.266   1.749
    1GLY    HA2  569   2.971   1.302   1.731
    1GLY     H3  570   3.019   1.064   1.746
    1GLY      N  571   2.604   1.430   2.144
    1GLY     CA  572   2.511   1.336   2.075
    1GLY      C  573   2.531   1.340   1.923
    1GLY      O  574   2.597   1.437   1.875
    1GLY     O1  575   2.477   1.247   1.857
    1GLY     H1  576   2.594   1.426   2.249
    1GLY     H2  577   2.703   1.401   2.120
    1GLY    HA1  578   2.526   1.235   2.115
    1GLY    HA2  579   2.408   1.368   2.097
    1GLY     H3  580   2.589   1.528   2.112
    1GLY      N  581   2.128   1.596   1.961
    1GLY     CA  582   2.255   1.562   1.892
    1GLY      C  583   2.242   1.578   1.740
    1GLY      O  584   2.125   1.586   1.691
    1GLY     O1  585   2.350   1.577   1.674
    1GLY     H1  586   2.136   1.589   2.065
    1GLY     H2  587   2.104   1.696   1.936
    1GLY    HA1  588   2.336   1.626   1.932
    1GLY    HA2  589   2.280   1.457   1.914
    1GLY     H3  590   2.050   1.534   1.929
    1GLY      N  591   2.926   1.100   2.327
    1GLY     CA  592   2.892   1.228   2.258
    1GLY      C  593   2.885   1.209   2.106
    1GLY      O  594   2.936   1.103   2.058
    1GLY     O1  595   2.832   1.302   2.040
    1GLY     H1  596   2.929   1.111   2.432
    1GLY     H2  597   2.852   1.029   2.303
    1GLY    HA1  598   2.797   1.266   2.298
    1GLY    HA2  599   2.971   1.302   2.280
    1GLY     H3  600   3.019   1.064   2.295
    1GLY      N  601   2.604   1.430   2.693
    1GLY     CA  602   2.511   1.336   2.624
    1GLY      C  603   2.531   1.340   2.472
    1GLY      O  604   2.597   1.437   2.424
    1GLY     O1  605   2.477   1.247   2.407
    1GLY     H1  606   2.594   1.426   2.798
    1GLY     H2  607   2.703   1.401   2.669
    1GLY    HA1  608   2.526   1.235   2.664
    1GLY    HA2  609   2.408   1.368   2.647
    1GLY     H3  610   2.589   1.528   2.661
    1GLY      N  611   2.128   1.596   2.510
    1GLY     CA  612   2.255   1.562   2.441
    1GLY      C  613   2.242   1.578   2.289
    1GLY      O  614   2.125   1.586   2.241
    1GLY     O1  615   2.350   1.577   2.224
    1GLY     H1  616   2.136   1.589   2.615
    1GLY     H2  617   2.104   1.696   2.486
    1GLY    HA1  618   2.336   1.626   2.481
    1GLY    HA2  619   2.280   1.457   2.464
    1GLY     H3  620   2.050   1.534   2.478
    1GLY      N  621   2.926   1.100   2.876
    1GLY     CA  622   2.892   1.228   2.807
    1GLY      C  623   2.885   1.209   2.655
    1GLY      O  624   2.936   1.103   2.607
    1GLY     O1  625   2.832   1.302   2.590
    1GLY     H1  626   2.929   1.111   2.981
    1GLY     H2  627   2.852   1.029   2.852
    1GLY    HA1  628   2.797   1.266   2.847
    1GLY    HA2  629   2.971   1.302   2.830
    1GLY     H3  630   3.019   1.064   2.844
    1GLY      N  631   2.604   1.430   3.242
    1GLY     CA  632   2.511   1.336   3.173
    1GLY      C  633   2.531   1.340   3.021
    1GLY      O  634   2.597   1.437   2.973
    1GLY     O1  635   2.477   1.247   2.956
    1GLY     H1  636   2.594   1.426   3.347
    1GLY     H2  637   2.703   1.401   3.218
    1GLY    HA1  638   2.526   1.235   3.213
    1GLY    HA2  639   2.408   1.368   3.196
    1GLY     H3  640   2.589   1.528   3.210
    1GLY      N  641   2.128   1.596   3.059
    1GLY     CA  642   2.255   1.562   2.990
    1GLY      C  643   2.242   1.578   2.838
    1GLY      O  644   2.125   1.586   2.790
    1GLY     O1  645   2.350   1.577   2.773
    1GLY     H1  646   2.136   1.589   3.164
    1GLY     H2  647   2.104   1.696   3.035
    1GLY    HA1  648   2.336   1.626   3.030
    1GLY    HA2  649   2.280   1.457   3.013
    1GLY     H3  650   2.050   1.534   3.027
    1GLY      N  651   2.926   1.100   3.425
    1GLY     CA  652   2.892   1.228   3.356
    1GLY      C  653   2.885   1.209   3.204
    1GLY      O  654   2.936   1.103   3.156
    1GLY     O1  655   2.832   1.302   3.139
    1GLY     H1  656   2.929   1.111   3.530
    1GLY     H2  657   2.852   1.029   3.401
    1GLY    HA1  658   2.797   1.266   3.396
    1GLY    HA2  659   2.971   1.302   3.379
    1GLY     H3  660   3.019   1.064   3.393
    1GLY      N  661   2.604   1.430   3.791
    1GLY     CA  662   2.511   1.336   3.722
    1GLY      C  663   2.531   1.340   3.570
    1GLY      O  664   2.597   1.437   3.522
    1GLY     O1  665   2.477   1.247   3.505
    1GLY     H1  666   2.594   1.426   3.896
    1GLY     H2  667   2.703   1.401   3.767
    1GLY    HA1  668   2.526   1.235   3.762
    1GLY    HA2  669   2.408   1.368   3.745
    1GLY     H3  670   2.589   1.528   3.759
    1GLY      N  671   2.128   1.596   3.608
    1GLY     CA  672   2.255   1.562   3.539
    1GLY      C  673   2.242   1.578   3.387
    1GLY      O  674   2.125   1.586   3.339
    1GLY     O1  675   2.350   1.577   3.322
    1GLY     H1  676   2.136   1.589   3.713
    1GLY     H2  677   2.104   1.696   3.584
    1GLY    HA1  678   2.336   1.626   3.579
    1GLY    HA2  679   2.280   1.457   3.562
    1GLY     H3  680   2.050   1.534   3.576
    1GLY      N  681   2.252   2.040   1.045
    1GLY     CA  682   2.159   1.946   0.977
    1GLY      C  683   2.179   1.950   0.825
    1GLY      O  684   2.245   2.047   0.776
    1GLY     O1  685   2.124   1.857   0.759
    1GLY     H1  686   2.241   2.036   1.150
    1GLY     H2  687   2.350   2.011   1.021
    1GLY    HA1  688   2.174   1.845   1.017
    1GLY    HA2  689   2.055   1.978   0.999
    1GLY     H3  690   2.237   2.138   1.013
    1GLY      N  691   2.574   1.711   1.228
    1GLY     CA  692   2.540   1.838   1.160
    1GLY      C  693   2.533   1.819   1.008
    1GLY      O  694   2.584   1.713   0.959
    1GLY     O1  695   2.480   1.912   0.942
    1GLY     H1  696   2.576   1.722   1.333
    1GLY     H2  697   2.500   1.640   1.204
    1GLY    HA1  698   2.445   1.876   1.200
    1GLY    HA2  699   2.619   1.912   1.182
    1GLY     H3  700   2.667   1.675   1.197
    1GLY      N  701   2.252   2.040   1.594
    1GLY     CA  702   2.159   1.946   1.526
    1GLY      C  703   2.179   1.950   1.374
    1GLY      O  704   2.245   2.047   1.325
    1GLY     O1  705   2.124   1.857   1.308
    1GLY     H1  706   2.241   2.036   1.699
    1GLY     H2  707   2.350   2.011   1.570
    1GLY    HA1  708   2.174   1.845   1.566
    1GLY    HA2  709   2.055   1.978   1.548
    1GLY     H3  710   2.237   2.138   1.563
    1GLY      N  711   1.776   2.206   1.411
    1GLY     CA  712   1.903   2.172   1.343
    1GLY      C  713   1.890   2.188   1.191
    1GLY      O  714   1.773   2.197   1.142
    1GLY     O1  715   1.998   2.187   1.125
    1GLY     H1  716   1.784   2.199   1.516
    1GLY     H2  717   1.751   2.306   1.387
    1GLY    HA1  718   1.984   2.236   1.383
    1GLY    HA2  719   1.927   2.067   1.365
    1GLY     H3  720   1.698   2.144   1.380
    1GLY      N  721   2.574   1.711   1.778
    1GLY     CA  722   2.540   1.838   1.709
    1GLY      C  723   2.533   1.819   1.557
    1GLY      O  724   2.584   1.713   1.508
    1GLY     O1  725   2.480   1.912   1.491
    1GLY     H1  726   2.576   1.722   1.882
    1GLY     H2  727   2.500   1.640   1.753
    1GLY    HA1  728   2.445   1.876   1.749
    1GLY    HA2  729   2.619   1.912   1.731
    1GLY     H3  730   2.667   1.675   1.746
    1GLY      N  731   2.252   2.040   2.144
    1GLY     CA  732   2.159   1.946   2.075
    1GLY      C  733   2.179   1.950   1.923
    1GLY      O  734   2.245   2.047   1.875
    1GLY     O1  735   2.124   1.857   1.857
    1GLY     H1  736   2.241   2.036   2.249
    1GLY     H2  737   2.350   2.011   2.120
    1GLY    HA1  738   2.174   1.845   2.115
    1GLY    HA2  739   2.055   1.978   2.097
    1GLY     H3  740   2.237   2.138   2.112
    1GLY      N  741   1.776   2.206   1.961
    1GLY     CA  742   1.903   2.172   1.892
    1GLY      C  743   1.890   2.188   1.740
    1GLY      O  744   1.773   2.197   1.691
    1GLY     O1  745   1.998   2.187   1.674
    1GLY     H1  746   1.784   2.199   2.065
    1GLY     H2  747   1.751   2.306   1.936
    1GLY    HA1  748   1.984   2.236   1.932
    1GLY    HA2  749   1.927   2.067   1.914
    1GLY     H3  750   1.698   2.144   1.929
    1GLY      N  751   2.574   1.711   2.327
    1GLY     CA  752   2.540   1.838   2.258
    1GLY      C  753   2.533   1.819   2.106
    1GLY      O  754   2.584   1.713   2.058
    1GLY     O1  755   2.480   1.912   2.040
    1GLY     H1  756   2.576   1.722   2.432
    1GLY     H2  757   2.500   1.640   2.303
    1GLY    HA1  758   2.445   1.876   2.298
    1GLY    HA2  759   2.619   1.912   2.280
    1GLY     H3  760   2.667   1.675   2.295
    1GLY      N  761   2.252   2.040   2.693
    1GLY     CA  762   2.159   1.946   2.624
    1GLY      C  763   2.179   1.950   2.472
    1GLY      O  764   2.245   2.047   2.424
    1GLY     O1  765   2.124   1.857   2.407
    1GLY     H1  766   2.241   2.036   2.798
    1GLY     H2  767   2.350   2.011   2.669
    1GLY    HA1  768   2.174   1.845   2.664
    1GLY    HA2  769   2.055   1.978   2.647
    1GLY     H3  770   2.237   2.138   2.661
    1GLY      N  771   1.776   2.206   2.510
    1GLY     CA  772   1.903   2.172   2.441
    1GLY      C  773   1.890   2.188   2.289
    1GLY      O  774   1.773   2.197   2.241
    1GLY     O1  775   1.998   2.187   2.224
    1GLY     H1  776   1.784   2.199   2.615
    1GLY     H2  777   1.751   2.306   2.486
    1GLY    HA1  778   1.984   2.236   2.481
    1GLY    HA2  779   1.927   2.067   2.464
    1GLY     H3  780   1.698   2.144   2.478
    1GLY      N  781   2.574   1.711   2.876
    1GLY     CA  782   2.540   1.838   2.807
    1GLY      C  783   2.533   1.819   2.655
    1GLY      O  784   2.584   1.713   2.607
    1GLY     O1  785   2.480   1.912   2.590
    1GLY     H1  786   2.576   1.722   2.981
    1GLY     H2  787   2.500   1.640   2.852
    1GLY    HA1  788   2.445   1.876   2.847
    1GLY    HA2  789   2.619   1.912   2.830
    1GLY     H3  790   2.667   1.675   2.844
    1GLY      N  791   2.252   2.040   3.242
    1GLY     CA  792   2.159   1.946   3.173
    1GLY      C  793   2.179   1.950   3.021
    1GLY      O  794   2.245   2.047   2.973
    1GLY     O1  795   2.124   1.857   2.956
    1GLY     H1  796   2.241   2.036   3.347
    1GLY     H2  797   2.350   2.011   3.218
    1GLY    HA1  798   2.174   1.845   3.213
    1GLY    HA2  799   2.055   1.978   3.196
    1GLY     H3  800   2.237   2.138   3.210
    1GLY      N  801   1.776   2.206   3.059
    1GLY     CA  802   1.903   2.172   2.990
    1GLY      C  803   1.890   2.188   2.838
    1GLY      O  804   1.773   2.197   2.790
    1GLY     O1  805   1.998   2.187   2.773
    1GLY     H1  806   1.784   2.199   3.164
    1GLY     H2  807   1.751   2.306   3.035
    1GLY    HA1  808   1.984   2.236   3.030
    1GLY    HA2  809   1.927   2.067   3.013
    1GLY     H3  810   1.698   2.144   3.027
    1GLY      N  811   2.574   1.711   3.425
    1GLY     CA  812   2.540   1.838   3.356
    1GLY      C  813   2.533   1.819   3.204
    1GLY      O  814   2.584   1.713   3.156
    1GLY     O1  815   2.480   1.912   3.139
    1GLY     H1  816   2.576   1.722   3.530
    1GLY     H2  817   2.500   1.640   3.401
    1GLY    HA1  818   2.445   1.876   3.396
    1GLY    HA2  819   2.619   1.912   3.379
    1GLY     H3  820   2.667   1.675   3.393
    1GLY      N  821   2.252   2.040   3.791
    1GLY     CA  822   2.159   1.946   3.722
    1GLY      C  823   2.179   1.950   3.570
    1GLY      O  824   2.245   2.047   3.522
    1GLY     O1  825   2.124   1.857   3.505
    1GLY     H1  826   2.241   2.036   3.896
    1GLY     H2  827   2.350   2.011   3.767
    1GLY    HA1  828   2.174   1.845   3.762
    1GLY    HA2  829   2.055   1.978   3.745
    1GLY     H3  830   2.237   2.138   3.759
    1GLY      N  831   1.776   2.206   3.608
    1GLY     CA  832   1.903   2.172   3.539
    1GLY      C  833   1.890   2.188   3.387
    1GLY      O  834   1.773   2.197   3.339
    1GLY     O1  835   1.998   2.187   3.322
    1GLY     H1  836   1.784   2.199   3.713
    1GLY     H2  837   1.751   2.306   3.584
    1GLY    HA1  838   1.984   2.236   3.579
    1GLY    HA2  839   1.927   2.067   3.562
    1GLY     H3  840   1.698   2.144   3.576
    1GLY      N  841   2.574   1.711   3.974
    1GLY     CA  842   2.540   1.838   3.905
    1GLY      C  843   2.533   1.819   3.754
    1GLY      O  844   2.584   1.713   3.705
    1GLY     O1  845   2.480   1.912   3.688
    1GLY     H1  846   2.576   1.722   4.079
    1GLY     H2  847   2.500   1.640   3.950
    1GLY    HA1  848   2.445   1.876   3.945
    1GLY    HA2  849   2.619   1.912   3.928
    1GLY     H3  850   2.667   1.675   3.942
    1GLY      N  851   1.776   2.206   4.157
    1GLY     CA  852   1.903   2.172   4.088
    1GLY      C  853   1.890   2.188   3.937
    1GLY      O  854   1.773   2.197   3.888
    1GLY     O1  855   1.998   2.187   3.871
    1GLY     H1  856   1.784   2.199   4.262
    1GLY     H2  857   1.751   2.306   4.133
    1GLY    HA1  858   1.984   2.236   4.128
    1GLY    HA2  859   1.927   2.067   4.111
    1GLY     H3  860   1.698   2.144   4.125
    1GLY      N  861   1.900   2.650   1.045
    1GLY     CA  862   1.806   2.557   0.977
    1GLY      C  863   1.827   2.560   0.825
    1GLY      O  864   1.892   2.657   0.776
    1GLY     O1  865   1.772   2.467   0.759
    1GLY     H1  866   1.889   2.647   1.150
    1GLY     H2  867   1.998   2.621   1.021
    1GLY    HA1  868   1.821   2.455   1.017
    1GLY    HA2  869   1.703   2.588   0.999
    1GLY     H3  870   1.884   2.749   1.013
    1GLY      N  871   2.222   2.321   1.228
    1GLY     CA  872   2.188   2.448   1.160
    1GLY      C  873   2.180   2.429   1.008
    1GLY      O  874   2.232   2.323   0.959
    1GLY     O1  875   2.128   2.523   0.942
    1GLY     H1  876   2.224   2.332   1.333
    1GLY     H2  877   2.148   2.250   1.204
    1GLY    HA1  878   2.092   2.486   1.200
    1GLY    HA2  879   2.267   2.522   1.182
    1GLY     H3  880   2.315   2.285   1.197
    1GLY      N  881   1.900   2.650   1.594
    1GLY     CA  882   1.806   2.557   1.526
    1GLY      C  883   1.827   2.560   1.374
    1GLY      O  884   1.892   2.657   1.325
    1GLY     O1  885   1.772   2.467   1.308
    1GLY     H1  886   1.889   2.647   1.699
    1GLY     H2  887   1.998   2.621   1.570
    1GLY    HA1  888   1.821   2.455   1.566
    1GLY    HA2  889   1.703   2.588   1.548
    1GLY     H3  890   1.884   2.749   1.563
    1GLY      N  891   1.423   2.817   1.411
    1GLY     CA  892   1.551   2.783   1.343
    1GLY      C  893   1.538   2.798   1.191
    1GLY      O  894   1.421   2.807   1.142
    1GLY     O1  895   1.645   2.797   1.125
    1GLY     H1  896   1.432   2.809   1.516
    1GLY     H2  897   1.399   2.916   1.387
    1GLY    HA1  898   1.631   2.846   1.383
    1GLY    HA2  899   1.575   2.677   1.365
    1GLY     H3  900   1.346   2.754   1.380
    1GLY      N  901   2.222   2.321   1.778
    1GLY     CA  902   2.188   2.448   1.709
    1GLY      C  903   2.180   2.429   1.557
    1GLY      O  904   2.232   2.323   1.508
    1GLY     O1  905   2.128   2.523   1.491
    1GLY     H1  906   2.224   2.332   1.882
    1GLY     H2  907   2.148   2.250   1.753
    1GLY    HA1  908   2.092   2.486   1.749
    1GLY    HA2  909   2.267   2.522   1.731
    1GLY     H3  910   2.315   2.285   1.746
    1GLY      N  911   1.900   2.650   2.144
    1GLY     CA  912   1.806   2.557   2.075
    1GLY      C  913   1.827   2.560   1.923
    1GLY      O  914   1.892   2.657   1.875
    1GLY     O1  915   1.772   2.467   1.857
    1GLY     H1  916   1.889   2.647   2.249
    1GLY     H2  917   1.998   2.621   2.120
    1GLY    HA1  918   1.821   2.455   2.115
    1GLY    HA2  919   1.703   2.588   2.097
    1GLY     H3  920   1.884   2.749   2.112
    1GLY      N  921   1.423   2.817   1.961
    1GLY     CA  922   1.551   2.783   1.892
    1GLY      C  923   1.538   2.798   1.740
    1GLY      O  924   1.421   2.807   1.691
    1GLY     O1  925   1.645   2.797   1.674
    1GLY     H1  926   1.432   2.809   2.065
    1GLY     H2  927   1.399   2.916   1.936
    1GLY    HA1  928   1.631   2.846   1.932
    1GLY    HA2  929   1.575   2.677   1.914
    1GLY     H3  930   1.346   2.754   1.929
    1GLY      N  931   2.222   2.321   2.327
    1GLY     CA  932   2.188   2.448   2.258
    1GLY      C  933   2.180   2.429   2.106
    1GLY      O  934   2.232   2.323   2.058
    1GLY     O1  935   2.128   2.523   2.040
    1GLY     H1  936   2.224   2.332   2.432
    1GLY     H2  937   2.148   2.250   2.303
    1GLY    HA1  938   2.092   2.486   2.298
    1GLY    HA2  939   2.267   2.522   2.280
    1GLY     H3  940   2.315   2.285   2.295
    1GLY      N  941   1.900   2.650   2.693
    1GLY     CA  942   1.806   2.557   2.624
    1GLY      C  943   1.827   2.560   2.472
    1GLY      O  944   1.892   2.657   2.424
    1GLY     O1  945   1.772   2.467   2.407
    1GLY     H1  946   1.889   2.647   2.798
    1GLY     H2  947   1.998   2.621   2.669
    1GLY    HA1  948   1.821   2.455   2.664
    1GLY    HA2  949   1.703   2.588   2.647
    1GLY     H3  950   1.884   2.749   2.661
    1GLY      N  951   1.423   2.817   2.510
    1GLY     CA  952   1.551   2.783   2.441
    1GLY      C  953   1.538   2.798   2.289
    1GLY      O  954   1.421   2.807   2.241
    1GLY     O1  955   1.645   2.797   2.224
    1GLY     H1  956   1.432   2.809   2.615
    1GLY     H2  957   1.399   2.916   2.486
    1GLY    HA1  958   1.631   2.846   2.481
    1GLY    HA2  959   1.575   2.677   2.464
    1GLY     H3  960   1.346   2.754   2.478
    1GLY      N  961   2.222   2.321   2.876
    1GLY     CA  962   2.188   2.448   2.807
    1GLY      C  963   2.180   2.429   2.655
    1GLY      O  964   2.232   2.323   2.607
    1GLY     O1  965   2.128   2.523   2.590
    1GLY     H1  966   2.224   2.332   2.981
    1GLY     H2  967   2.148   2.250   2.852
    1GLY    HA1  968   2.092   2.486   2.847
    1GLY    HA2  969   2.267   2.522   2.830
    1GLY     H3  970   2.315   2.285   2.844
    1GLY      N  971   1.900   2.650   3.242
    1GLY     CA  972   1.806   2.557   3.173
    1GLY      C  973   1.827   2.560   3.021
    1GLY      O  974   1.892   2.657   2.973
    1GLY     O1  975   1.772   2.467   2.956
    1GLY     H1  976   1.889   2.647   3.347
    1GLY     H2  977   1.998   2.621   3.218
    1GLY    HA1  978   1.821   2.455   3.213
    1GLY    HA2  979   1.703   2.588   3.196
    1GLY     H3  980   1.884   2.749   3.210
    1GLY      N  981   1.423   2.817   3.059
    1GLY     CA  982   1.551   2.783   2.990
    1GLY      C  983   1.538   2.798   2.838
    1GLY      O  984   1.421   2.807   2.790
    1GLY     O1  985   1.645   2.797   2.773
    1GLY     H1  986   1.432   2.809   3.164
    1GLY     H2  987   1.399   2.916   3.035
    1GLY    HA1  988   1.631   2.846   3.030
    1GLY    HA2  989   1.575   2.677   3.013
    1GLY     H3  990   1.346   2.754   3.027
    1GLY      N  991   2.222   2.321   3.425
    1GLY     CA  992   2.188   2.448   3.356
    1GLY      C  993   2.180   2.429   3.204
    1GLY      O  994   2.232   2.323   3.156
    1GLY     O1  995   2.128   2.523   3.139
    1GLY     H1  996   2.224   2.332   3.530
    1GLY     H2  997   2.148   2.250   3.401
    1GLY    HA1  998   2.092   2.486   3.396
    1GLY    HA2  999   2.267   2.522   3.379
    1GLY     H3 1000   2.315   2.285   3.393
    1GLY      N 1001   1.900   2.650   3.791
    1GLY     CA 1002   1.806   2.557   3.722
    1GLY      C 1003   1.827   2.560   3.570
    1GLY      O 1004   1.892   2.657   3.522
    1GLY     O1 1005   1.772   2.467   3.505
    1GLY     H1 1006   1.889   2.647   3.896
    1GLY     H2 1007   1.998   2.621   3.767
    1GLY    HA1 1008   1.821   2.455   3.762
    1GLY    HA2 1009   1.703   2.588   3.745
    1GLY     H3 1010   1.884   2.749   3.759
    1GLY      N 1011   1.423   2.817   3.608
    1GLY     CA 1012   1.551   2.783   3.539
    1GLY      C 1013   1.538   2.798   3.387
    1GLY      O 1014   1.421   2.807   3.339
    1GLY     O1 1015   1.645   2.797   3.322
    1GLY     H1 1016   1.432   2.809   3.713
    1GLY     H2 1017   1.399   2.916   3.584
    1GLY    HA1 1018   1.631   2.846   3.579
    1GLY    HA2 1019   1.575   2.677   3.562
    1GLY     H3 1020   1.346   2.754   3.576
    1GLY      N 1021   2.222   2.321   3.974
    1GLY     CA 1022   2.188   2.448   3.905
    1GLY      C 1023   2.180   2.429   3.754
    1GLY      O 1024   2.232   2.323   3.705
    1GLY     O1 1025   2.128   2.523   3.688
    1GLY     H1 1026   2.224   2.332   4.079
    1GLY     H2 1027   2.148   2.250   3.950
    1GLY    HA1 1028   2.092   2.486   3.945
    1GLY    HA2 1029   2.267   2.522   3.928
    1GLY     H3 1030   2.315   2.285   3.942
    1GLY      N 1031   1.870   2.931   1.228
    1GLY     CA 1032   1.835   3.058   1.160
    1GLY      C 1033   1.828   3.039   1.008
    1GLY      O 1034   1.879   2.934   0.959
    1GLY     O1 1035   1.775   3.133   0.942
    1GLY     H1 1036   1.872   2.942   1.333
    1GLY     H2 1037   1.795   2.860   1.204
    1GLY    HA1 1038   1.740   3.096   1.200
    1GLY    HA2 1039   1.914   3.132   1.182
    1GLY     H3 1040   1.963   2.895   1.197
    1GLY      N 1041   1.547   3.260   1.594
    1GLY     CA 1042   1.454   3.167   1.526
    1GLY      C 1043   1.474   3.170   1.374
    1GLY      O 1044   1.540   3.267   1.325
    1GLY     O1 1045   1.420   3.078   1.308
    1GLY     H1 1046   1.537   3.257   1.699
    1GLY     H2 1047   1.646   3.231   1.570
    1GLY    HA1 1048   1.469   3.065   1.566
    1GLY    HA2 1049   1.351   3.198   1.548
    1GLY     H3 1050   1.532   3.359   1.563
    1GLY      N 1051   1.870   2.931   1.778
    1GLY     CA 1052   1.835   3.058   1.709
    1GLY      C 1053   1.828   3.039   1.557
    1GLY      O 1054   1.879   2.934   1.508
    1GLY     O1 1055   1.775   3.133   1.491
    1GLY     H1 1056   1.872   2.942   1.882
    1GLY     H2 1057   1.795   2.860   1.753
    1GLY    HA1 1058   1.740   3.096   1.749
    1GLY    HA2 1059   1.914   3.132   1.731
    1GLY     H3 1060   1.963   2.895   1.746
    1GLY      N 1061   1.547   3.260   2.144
    1GLY     CA 1062   1.454   3.167   2.075
    1GLY      C 1063   1.474   3.170   1.923
    1GLY      O 1064   1.540   3.267   1.875
    1GLY     O1 1065   1.420   3.078   1.857
    1GLY     H1 1066   1.537   3.257   2.249
    1GLY     H2 1067   1.646   3.231   2.120
    1GLY    HA1 1068   1.469   3.065   2.115
    1GLY    HA2 1069   1.351   3.198   2.097
    1GLY     H3 1070   1.532   3.359   2.112
    1GLY      N 1071   1.071   3.427   1.961
    1GLY     CA 1072   1.198   3.393   1.892
    1GLY      C 1073   1.185   3.409   1.740
    1GLY      O 1074   1.068   3.417   1.691
    1GLY     O1 1075   1.293   3.407   1.674
    1GLY     H1 1076   1.079   3.419   2.065
    1GLY     H2 1077   1.047   3.527   1.936
    1GLY    HA1 1078   1.279   3.456   1.932
    1GLY    HA2 1079   1.223   3.287   1.914
    1GLY     H3 1080   0.993   3.364   1.929
    1GLY      N 1081   1.870   2.931   2.327
    1GLY     CA 1082   1.835   3.058   2.258
    1GLY      C 1083   1.828   3.039   2.106
    1GLY      O 1084   1.879   2.934   2.058
    1GLY     O1 1085   1.775   3.133   2.040
    1GLY     H1 1086   1.872   2.942   2.432
    1GLY     H2 1087   1.795   2.860   2.303
    1GLY    HA1 1088   1.740   3.096   2.298
    1GLY    HA2 1089   1.914   3.132   2.280
    1GLY     H3 1090   1.963   2.895   2.295
    1GLY      N 1091   1.547   3.260   2.693
    1GLY     CA 1092   1.454   3.167   2.624
    1GLY      C 1093   1.474   3.170   2.472
    1GLY      O 1094   1.540   3.267   2.424
    1GLY     O1 1095   1.420   3.078   2.407
    1GLY     H1 1096   1.537   3.257   2.798
    1GLY     H2 1097   1.646   3.231   2.669
    1GLY    HA1 1098   1.469   3.065   2.664
    1GLY    HA2 1099   1.351   3.198   2.647
    1GLY     H3 1100   1.532   3.359   2.661
    1GLY      N 1101   1.071   3.427   2.510
    1GLY     CA 1102   1.198   3.393   2.441
    1GLY      C 1103   1.185   3.409   2.289
    1GLY      O 1104   1.068   3.417   2.241
    1GLY     O1 1105   1.293   3.407   2.224
    1GLY     H1 1106   1.079   3.419   2.615
    1GLY     H2 1107   1.047   3.527   2.486
    1GLY    HA1 1108   1.279   3.456   2.481
    1GLY    HA2 1109   1.223   3.287   2.464
    1GLY     H3 1110   0.993   3.364   2.478
    1GLY      N 1111   1.870   2.931   2.876
    1GLY     CA 1112   1.835   3.058   2.807
    1GLY      C 1113   1.828   3.039   2.655
    1GLY      O 1114   1.879   2.934   2.607
    1GLY     O1 1115   1.775   3.133   2.590
    1GLY     H1 1116   1.872   2.942   2.981
    1GLY     H2 1117   1.795   2.860   2.852
    1GLY    HA1 1118   1.740   3.096   2.847
    1GLY    HA2 1119   1.914   3.132   2.830
    1GLY     H3 1120   1.963   2.895   2.844
    1GLY      N 1121   1.547   3.260   3.242
    1GLY     CA 1122   1.454   3.167   3.173
    1GLY      C 1123   1.474   3.170   3.021
    1GLY      O 1124   1.540   3.267   2.973
    1GLY     O1 1125   1.420   3.078   2.956
    1GLY     H1 1126   1.537   3.257   3.347
    1GLY     H2 1127   1.646   3.231   3.218
    1GLY    HA1 1128   1.469   3.065   3.213
    1GLY    HA2 1129   1.351   3.198   3.196
    1GLY     H3 1130   1.532   3.359   3.210
    1GLY      N 1131   1.071   3.427   3.059
    1GLY     CA 1132   1.198   3.393   2.990
    1GLY      C 1133   1.185   3.409   2.838
    1GLY      O 1134   1.068   3.417   2.790
    1GLY     O1 1135   1.293   3.407   2.773
    1GLY     H1 1136   1.079   3.419   3.164
    1GLY     H2 1137   1.047   3.527   3.035
    1GLY    HA1 1138   1.279   3.456   3.030
    1GLY    HA2 1139   1.223   3.287   3.013
    1GLY     H3 1140   0.993   3.364   3.027
    1GLY      N 1141   1.870   2.931   3.425
    1GLY     CA 1142   1.835   3.058   3.356
    1GLY      C 1143   1.828   3.039   3.204
    1GLY      O 1144   1.879   2.934   3.156
    1GLY     O1 1145   1.775   3.133   3.139
    1GLY     H1 1146   1.872   2.942   3.530
    1GLY     H2 1147   1.795   2.860   3.401
    1GLY    HA1 1148   1.740   3.096   3.396
    1GLY    HA2 1149   1.914   3.132   3.379
    1GLY     H3 1150   1.963   2.895   3.393
    1GLY      N 1151   1.547   3.260   3.791
    1GLY     CA 1152   1.454   3.167   3.722
    1GLY      C 1153   1.474   3.170   3.570
    1GLY      O 1154   1.540   3.267   3.522
    1GLY     O1 1155   1.420   3.078   3.505
    1GLY     H1 1156   1.537   3.257   3.896
    1GLY     H2 1157   1.646   3.231   3.767
    1GLY    HA1 1158   1.469   3.065   3.762
    1GLY    HA2 1159   1.351   3.198   3.745
    1GLY     H3 1160   1.532   3.359   3.759
    1GLY      N 1161   1.870   2.931   3.974
    1GLY     CA 1162   1.835   3.058   3.905
    1GLY      C 1163   1.828   3.039   3.754
    1GLY      O 1164   1.879   2.934   3.705
    1GLY     O1 1165   1.775   3.133   3.688
    1GLY     H1 1166   1.872   2.942   4.079
    1GLY     H2 1167   1.795   2.860   3.950
    1GLY    HA1 1168   1.740   3.096   3.945
    1GLY    HA2 1169   1.914   3.132   3.928
    1GLY     H3 1170   1.963   2.895   3.942
    1GLY      N 1171   1.517   3.541   1.778
    1GLY     CA 1172   1.483   3.669   1.709
    1GLY      C 1173   1.476   3.649   1.557
    1GLY      O 1174   1.527   3.544   1.508
    1GLY     O1 1175   1.423   3.743   1.491
    1GLY     H1 1176   1.520   3.552   1.882
    1GLY     H2 1177   1.443   3.470   1.753
    1GLY    HA1 1178   1.388   3.707   1.749
    1GLY    HA2 1179   1.562   3.742   1.731
    1GLY     H3 1180   1.610   3.505   1.746
    1GLY      N 1181   1.517   3.541   2.327
    1GLY     CA 1182   1.483   3.669   2.258
    1GLY      C 1183   1.476   3.649   2.106
    1GLY      O 1184   1.527   3.544   2.058
    1GLY     O1 1185   1.423   3.743   2.040
    1GLY     H1 1186   1.520   3.552   2.432
    1GLY     H2 1187   1.443   3.470   2.303
    1GLY    HA1 1188   1.388   3.707   2.298
    1GLY    HA2 1189   1.562   3.742   2.280
    1GLY     H3 1190   1.610   3.505   2.295
    1GLY      N 1191   1.517   3.541   2.876
    1GLY     CA 1192   1.483   3.669   2.807
    1GLY      C 1193   1.476   3.649   2.655
    1GLY      O 1194   1.527   3.544   2.607
    1GLY     O1 1195   1.423   3.743   2.590
    1GLY     H1 1196   1.520   3.552   2.981
    1GLY     H2 1197   1.443   3.470   2.852
    1GLY    HA1 1198   1.388   3.707   2.847
    1GLY    HA2 1199   1.562   3.742   2.830
    1GLY     H3 1200   1.610   3.505   2.844
    1GLY      N 1201   1.517   3.541   3.425
    1GLY     CA 1202   1.483   3.669   3.356
    1GLY      C 1203   1.476   3.649   3.204
    1GLY      O 1204   1.527   3.544   3.156
    1GLY     O1 1205   1.423   3.743   3.139
    1GLY     H1 1206   1.520   3.552   3.530
    1GLY     H2 1207   1.443   3.470   3.401
    1GLY    HA1 1208   1.388   3.707   3.396
    1GLY    HA2 1209   1.562   3.742   3.379
    1GLY     H3 1210   1.610   3.505   3.393
    1GLY      N 1211   3.309   1.430   1.594
    1GLY     CA 1212   3.216   1.336   1.526
    1GLY      C 1213   3.236   1.340   1.374
    1GLY      O 1214   3.302   1.437   1.325
    1GLY     O1 1215   3.181   1.247   1.308
    1GLY     H1 1216   3.298   1.426   1.699
    1GLY     H2 1217   3.407   1.401   1.570
    1GLY    HA1 1218   3.230   1.235   1.566
    1GLY    HA2 1219   3.112   1.368   1.548
    1GLY     H3 1220   3.293   1.528   1.563
    1GLY      N 1221   2.832   1.596   1.411
    1GLY     CA 1222   2.960   1.562   1.343
    1GLY      C 1223   2.947   1.578   1.191
    1GLY      O 1224   2.830   1.586   1.142
    1GLY     O1 1225   3.054   1.577   1.125
    1GLY     H1 1226   2.841   1.589   1.516
    1GLY     H2 1227   2.808   1.696   1.387
    1GLY    HA1 1228   3.040   1.626   1.383
    1GLY    HA2 1229   2.984   1.457   1.365
    1GLY     H3 1230   2.755   1.534   1.380
    1GLY      N 1231   3.309   1.430   2.144
    1GLY     CA 1232   3.216   1.336   2.075
    1GLY      C 1233   3.236   1.340   1.923
    1GLY      O 1234   3.302   1.437   1.875
    1GLY     O1 1235   3.181   1.247   1.857
    1GLY     H1 1236   3.298   1.426   2.249
    1GLY     H2 1237   3.407   1.401   2.120
    1GLY    HA1 1238   3.230   1.235   2.115
    1GLY    HA2 1239   3.112   1.368   2.097
    1GLY     H3 1240   3.293   1.528   2.112
    1GLY      N 1241   2.832   1.596   1.961
    1GLY     CA 1242   2.960   1.562   1.892
    1GLY      C 1243   2.947   1.578   1.740
    1GLY      O 1244   2.830   1.586   1.691
    1GLY     O1 1245   3.054   1.577   1.674
    1GLY     H1 1246   2.841   1.589   2.065
    1GLY     H2 1247   2.808   1.696   1.936
    1GLY    HA1 1248   3.040   1.626   1.932
    1GLY    HA2 1249   2.984   1.457   1.914
    1GLY     H3 1250   2.755   1.534   1.929
    1GLY      N 1251   3.631   1.100   2.327
    1GLY     CA 1252   3.597   1.228   2.258
    1GLY      C 1253   3.590   1.209   2.106
    1GLY      O 1254   3.641   1.103   2.058
    1GLY     O1 1255   3.537   1.302   2.040
    1GLY     H1 1256   3.633   1.111   2.432
    1GLY     H2 1257   3.557   1.029   2.303
    1GLY    HA1 1258   3.501   1.266   2.298
    1GLY    HA2 1259   3.676   1.302   2.280
    1GLY     H3 1260   3.724   1.064   2.295
    1GLY      N 1261   3.309   1.430   2.693
    1GLY     CA 1262   3.216   1.336   2.624
    1GLY      C 1263   3.236   1.340   2.472
    1GLY      O 1264   3.302   1.437   2.424
    1GLY     O1 1265   3.181   1.247   2.407
    1GLY     H1 1266   3.298   1.426   2.798
    1GLY     H2 1267   3.407   1.401   2.669
    1GLY    HA1 1268   3.230   1.235   2.664
    1GLY    HA2 1269   3.112   1.368   2.647
    1GLY     H3 1270   3.293   1.528   2.661
    1GLY      N 1271   2.832   1.596   2.510
    1GLY     CA 1272   2.960   1.562   2.441
    1GLY      C 1273   2.947   1.578   2.289
    1GLY      O 1274   2.830   1.586   2.241
    1GLY     O1 1275   3.054   1.577   2.224
    1GLY     H1 1276   2.841   1.589   2.615
    1GLY     H2 1277   2.808   1.696   2.486
    1GLY    HA1 1278   3.040   1.626   2.481
    1GLY    HA2 1279   2.984   1.457   2.464
    1GLY     H3 1280   2.755   1.534   2.478
    1GLY      N 1281   3.631   1.100   2.876
    1GLY     CA 1282   3.597   1.228   2.807
    1GLY      C 1283   3.590   1.209   2.655
    1GLY      O 1284   3.641   1.103   2.607
    1GLY     O1 1285   3.537   1.302   2.590
    1GLY     H1 1286   3.633   1.111   2.981
    1GLY     H2 1287   3.557   1.029   2.852
    1GLY    HA1 1288   3.501   1.266   2.847
    1GLY    HA2 1289   3.676   1.302   2.830
    1GLY     H3 1290   3.724   1.064   2.844
    1GLY      N 1291   3.309   1.430   3.242
    1GLY     CA 1292   3.216   1.336   3.173
    1GLY      C 1293   3.236   1.340   3.021
    1GLY      O 1294   3.302   1.437   2.973
    1GLY     O1 1295   3.181   1.247   2.956
    1GLY     H1 1296   3.298   1.426   3.347
    1GLY     H2 1297   3.407   1.401   3.218
    1GLY    HA1 1298   3.230   1.235   3.213
    1GLY    HA2 1299   3.112   1.368   3.196
    1GLY     H3 1300   3.293   1.528   3.210
    1GLY      N 1301   2.832   1.596   3.059
    1GLY     CA 1302   2.960   1.562   2.990
    1GLY      C 1303   2.947   1.578   2.838
    1GLY      O 1304   2.830   1.586   2.790
    1GLY     O1 1305   3.054   1.577   2.773
    1GLY     H1 1306   2.841   1.589   3.164
    1GLY     H2 1307   2.808   1.696   3.035
    1GLY    HA1 1308   3.040   1.626   3.030
    1GLY    HA2 1309   2.984   1.457   3.013
    1GLY     H3 1310   2.755   1.534   3.027
    1GLY      N 1311   2.832   1.596   3.608
    1GLY     CA 1312   2.960   1.562   3.539
    1GLY      C 1313   2.947   1.578   3.387
    1GLY      O 1314   2.830   1.586   3.339
    1GLY     O1 1315   3.054   1.577   3.322
    1GLY     H1 1316   2.841   1.589   3.713
    1GLY     H2 1317   2.808   1.696   3.584
    1GLY    HA1 1318   3.040   1.626   3.579
    1GLY    HA2 1319   2.984   1.457   3.562
    1GLY     H3 1320   2.755   1.534   3.576
    1GLY      N 1321   2.957   2.040   1.045
    1GLY     CA 1322   2.863   1.946   0.977
    1GLY      C 1323   2.884   1.950   0.825
    1GLY      O 1324   2.949   2.047   0.776
    1GLY     O1 1325   2.829   1.857   0.759
    1GLY     H1 1326   2.946   2.036   1.150
    1GLY     H2 1327   3.055   2.011   1.021
    1GLY    HA1 1328   2.878   1.845   1.017
    1GLY    HA2 1329   2.760   1.978   0.999
    1GLY     H3 1330   2.941   2.138   1.013
    1GLY      N 1331   3.279   1.711   1.228
    1GLY     CA 1332   3.244   1.838   1.160
    1GLY      C 1333   3.237   1.819   1.008
    1GLY      O 1334   3.289   1.713   0.959
    1GLY     O1 1335   3.184   1.912   0.942
    1GLY     H1 1336   3.281   1.722   1.333
    1GLY     H2 1337   3.205   1.640   1.204
    1GLY    HA1 1338   3.149   1.876   1.200
    1GLY    HA2 1339   3.323   1.912   1.182
    1GLY     H3 1340   3.372   1.675   1.197
    1GLY      N 1341   2.957   2.040   1.594
    1GLY     CA 1342   2.863   1.946   1.526
    1GLY      C 1343   2.884   1.950   1.374
    1GLY      O 1344   2.949   2.047   1.325
    1GLY     O1 1345   2.829   1.857   1.308
    1GLY     H1 1346   2.946   2.036   1.699
    1GLY     H2 1347   3.055   2.011   1.570
    1GLY    HA1 1348   2.878   1.845   1.566
    1GLY    HA2 1349   2.760   1.978   1.548
    1GLY     H3 1350   2.941   2.138   1.563
    1GLY      N 1351   2.480   2.206   1.411
    1GLY     CA 1352   2.608   2.172   1.343
    1GLY      C 1353   2.595   2.188   1.191
    1GLY      O 1354   2.478   2.197   1.142
    1GLY     O1 1355   2.702   2.187   1.125
    1GLY     H1 1356   2.489   2.199   1.516
    1GLY     H2 1357   2.456   2.306   1.387
    1GLY    HA1 1358   2.688   2.236   1.383
    1GLY    HA2 1359   2.632   2.067   1.365
    1GLY     H3 1360   2.403   2.144   1.380
    1GLY      N 1361   3.279   1.711   1.778
    1GLY     CA 1362   3.244   1.838   1.709
    1GLY      C 1363   3.237   1.819   1.557
    1GLY      O 1364   3.289   1.713   1.508
    1GLY     O1 1365   3.184   1.912   1.491
    1GLY     H1 1366   3.281   1.722   1.882
    1GLY     H2 1367   3.205   1.640   1.753
    1GLY    HA1 1368   3.149   1.876   1.749
    1GLY    HA2 1369   3.323   1.912   1.731
    1GLY     H3 1370   3.372   1.675   1.746
    1GLY      N 1371   2.957   2.040   2.144
    1GLY     CA 1372   2.863   1.946   2.075
    1GLY      C 1373   2.884   1.950   1.923
    1GLY      O 1374   2.949   2.047   1.875
    1GLY     O1 1375   2.829   1.857   1.857
    1GLY     H1 1376   2.946   2.036   2.249
    1GLY     H2 1377   3.055   2.011   2.120
    1GLY    HA1 1378   2.878   1.845   2.115
    1GLY    HA2 1379   2.760   1.978   2.097
    1GLY     H3 1380   2.941   2.138   2.112
    1GLY      N 1381   2.480   2.206   1.961
    1GLY     CA 1382   2.608   2.172   1.892
    1GLY      C 1383   2.595   2.188   1.740
    1GLY      O 1384   2.478   2.197   1.691
    1GLY     O1 1385   2.702   2.187   1.674
    1GLY     H1 1386   2.489   2.199   2.065
    1GLY     H2 1387   2.456   2.306   1.936
    1GLY    HA1 1388   2.688   2.236   1.932
    1GLY    HA2 1389   2.632   2.067   1.914
    1GLY     H3 1390   2.403   2.144   1.929
    1GLY      N 1391   3.279   1.711   2.327
    1GLY     CA 1392   3.244   1.838   2.258
    1GLY      C 1393   3.237   1.819   2.106
    1GLY      O 1394   3.289   1.713   2.058
    1GLY     O1 1395   3.184   1.912   2.040
    1GLY     H1 1396   3.281   1.722   2.432
    1GLY     H2 1397   3.205   1.640   2.303
    1GLY    HA1 1398   3.149   1.876   2.298
    1GLY    HA2 1399   3.323   1.912   2.280
    1GLY     H3 1400   3.372   1.675   2.295
    1GLY      N 1401   2.957   2.040   2.693
    1GLY     CA 1402   2.863   1.946   2.624
    1GLY      C 1403   2.884   1.950   2.472
    1GLY      O 1404   2.949   2.047   2.424
    1GLY     O1 1405   2.829   1.857   2.407
    1GLY     H1 1406   2.946   2.036   2.798
    1GLY     H2 1407   3.055   2.011   2.669
    1GLY    HA1 1408   2.878   1.845   2.664
    1GLY    HA2 1409   2.760   1.978   2.647
    1GLY     H3 1410   2.941   2.138   2.661
    1GLY      N 1411   2.480   2.206   2.510
    1GLY     CA 1412   2.608   2.172   2.441
    1GLY      C 1413   2.595   2.188   2.289
    1GLY      O 1414   2.478   2.197   2.241
    1GLY     O1 1415   2.702   2.187   2.224
    1GLY     H1 1416   2.489   2.199   2.615
    1GLY     H2 1417   2.456   2.306   2.486
    1GLY    HA1 1418   2.688   2.236   2.481
    1GLY    HA2 1419   2.632   2.067   2.464
    1GLY     H3 1420   2.403   2.144   2.478
    1GLY      N 1421   3.279   1.711   2.876
    1GLY     CA 1422   3.244   1.838   2.807
    1GLY      C 1423   3.237   1.819   2.655
    1GLY      O 1424   3.289   1.713   2.607
    1GLY     O1 1425   3.184   1.912   2.590
    1GLY     H1 1426   3.281   1.722   2.981
    1GLY     H2 1427   3.205   1.640   2.852
    1GLY    HA1 1428   3.149   1.876   2.847
    1GLY    HA2 1429   3.323   1.912   2.830
    1GLY     H3 1430   3.372   1.675   2.844
    1GLY      N 1431   2.957   2.040   3.242
    1GLY     CA 1432   2.863   1.946   3.173
    1GLY      C 1433   2.884   1.950   3.021
    1GLY      O 1434   2.949   2.047   2.973
    1GLY     O1 1435   2.829   1.857   2.956
    1GLY     H1 1436   2.946   2.036   3.347
    1GLY     H2 1437   3.055   2.011   3.218
    1GLY    HA1 1438   2.878   1.845   3.213
    1GLY    HA2 1439   2.760   1.978   3.196
    1GLY     H3 1440   2.941   2.138   3.210
    1GLY      N 1441   2.480   2.206   3.059
    1GLY     CA 1442   2.608   2.172   2.990
    1GLY      C 1443   2.595   2.188   2.838
    1GLY      O 1444   2.478   2.197   2.790
    1GLY     O1 1445   2.702   2.187   2.773
    1GLY     H1 1446   2.489   2.199   3.164
    1GLY     H2 1447   2.456   2.306   3.035
    1GLY    HA1 1448   2.688   2.236   3.030
    1GLY    HA2 1449   2.632   2.067   3.013
    1GLY     H3 1450   2.403   2.144   3.027
    1GLY      N 1451   3.279   1.711   3.425
    1GLY     CA 1452   3.244   1.838   3.356
    1GLY      C 1453   3.237   1.819   3.204
    1GLY      O 1454   3.289   1.713   3.156
    1GLY     O1 1455   3.184   1.912   3.139
    1GLY     H1 1456   3.281   1.722   3.530
    1GLY     H2 1457   3.205   1.640   3.401
    1GLY    HA1 1458   3.149   1.876   3.396
    1GLY    HA2 1459   3.323   1.912   3.379
    1GLY     H3 1460   3.372   1.675   3.393
    1GLY      N 1461   2.957   2.040   3.791
    1GLY     CA 1462   2.863   1.946   3.722
    1GLY      C 1463   2.884   1.950   3.570
    1GLY      O 1464   2.949   2.047   3.522
    1GLY     O1 1465   2.829   1.857   3.505
    1GLY     H1 1466   2.946   2.036   3.896
    1GLY     H2 1467   3.055   2.011   3.767
    1GLY    HA1 1468   2.878   1.845   3.762
    1GLY    HA2 1469   2.760   1.978   3.745
    1GLY     H3 1470   2.941   2.138   3.759
    1GLY      N 1471   2.480   2.206   3.608
    1GLY     CA 1472   2.608   2.172   3.539
    1GLY      C 1473   2.595   2.188   3.387
    1GLY      O 1474   2.478   2.197   3.339
    1GLY     O1 1475   2.702   2.187   3.322
    1GLY     H1 1476   2.489   2.199   3.713
    1GLY     H2 1477   2.456   2.306   3.584
    1GLY    HA1 1478   2.688   2.236   3.579
    1GLY    HA2 1479   2.632   2.067   3.562
    1GLY     H3 1480   2.403   2.144   3.576
    1GLY      N 1481   3.279   1.711   3.974
    1GLY     CA 1482   3.244   1.838   3.905
    1GLY      C 1483   3.237   1.819   3.754
    1GLY      O 1484   3.289   1.713   3.705
    1GLY     O1 1485   3.184   1.912   3.688
    1GLY     H1 1486   3.281   1.722   4.079
    1GLY     H2 1487   3.205   1.640   3.950
    1GLY    HA1 1488   3.149   1.876   3.945
    1GLY    HA2 1489   3.323   1.912   3.928
    1GLY     H3 1490   3.372   1.675   3.942
    1GLY      N 1491   2.480   2.206   4.157
    1GLY     CA 1492   2.608   2.172   4.088
    1GLY      C 1493   2.595   2.188   3.937
    1GLY      O 1494   2.478   2.197   3.888
    1GLY     O1 1495   2.702   2.187   3.871
    1GLY     H1 1496   2.489   2.199   4.262
    1GLY     H2 1497   2.456   2.306   4.133
    1GLY    HA1 1498   2.688   2.236   4.128
    1GLY    HA2 1499   2.632   2.067   4.111
    1GLY     H3 1500   2.403   2.144   4.125
    1GLY      N 1501   2.604   2.650   1.045
    1GLY     CA 1502   2.511   2.557   0.977
    1GLY      C 1503   2.531   2.560   0.825
    1GLY      O 1504   2.597   2.657   0.776
    1GLY     O1 1505   2.477   2.467   0.759
    1GLY     H1 1506   2.594   2.647   1.150
    1GLY     H2 1507   2.703   2.621   1.021
    1GLY    HA1 1508   2.526   2.455   1.017
    1GLY    HA2 1509   2.408   2.588   0.999
    1GLY     H3 1510   2.589   2.749   1.013
    1GLY      N 1511   2.926   2.321   1.228
    1GLY     CA 1512   2.892   2.448   1.160
    1GLY      C 1513   2.885   2.429   1.008
    1GLY      O 1514   2.936   2.323   0.959
    1GLY     O1 1515   2.832   2.523   0.942
    1GLY     H1 1516   2.929   2.332   1.333
    1GLY     H2 1517   2.852   2.250   1.204
    1GLY    HA1 1518   2.797   2.486   1.200
    1GLY    HA2 1519   2.971   2.522   1.182
    1GLY     H3 1520   3.019   2.285   1.197
    1GLY      N 1521   2.604   2.650   1.594
    1GLY     CA 1522   2.511   2.557   1.526
    1GLY      C 1523   2.531   2.560   1.374
    1GLY      O 1524   2.597   2.657   1.325
    1GLY     O1 1525   2.477   2.467   1.308
    1GLY     H1 1526   2.594   2.647   1.699
    1GLY     H2 1527   2.703   2.621   1.570
    1GLY    HA1 1528   2.526   2.455   1.566
    1GLY    HA2 1529   2.408   2.588   1.548
    1GLY     H3 1530   2.589   2.749   1.563
    1GLY      N 1531   2.128   2.817   1.411
    1GLY     CA 1532   2.255   2.783   1.343
    1GLY      C 1533   2.242   2.798   1.191
    1GLY      O 1534   2.125   2.807   1.142
    1GLY     O1 1535   2.350   2.797   1.125
    1GLY     H1 1536   2.136   2.809   1.516
    1GLY     H2 1537   2.104   2.916   1.387
    1GLY    HA1 1538   2.336   2.846   1.383
    1GLY    HA2 1539   2.280   2.677   1.365
    1GLY     H3 1540   2.050   2.754   1.380
    1GLY      N 1541   2.926   2.321   1.778
    1GLY     CA 1542   2.892   2.448   1.709
    1GLY      C 1543   2.885   2.429   1.557
    1GLY      O 1544   2.936   2.323   1.508
    1GLY     O1 1545   2.832   2.523   1.491
    1GLY     H1 1546   2.929   2.332   1.882
    1GLY     H2 1547   2.852   2.250   1.753
    1GLY    HA1 1548   2.797   2.486   1.749
    1GLY    HA2 1549   2.971   2.522   1.731
    1GLY     H3 1550   3.019   2.285   1.746
    1GLY      N 1551   2.604   2.650   2.144
    1GLY     CA 1552   2.511   2.557   2.075
    1GLY      C 1553   2.531   2.560   1.923
    1GLY      O 1554   2.597   2.657   1.875
    1GLY     O1 1555   2.477   2.467   1.857
    1GLY     H1 1556   2.594   2.647   2.249
    1GLY     H2 1557   2.703   2.621   2.120
    1GLY    HA1 1558   2.526   2.455   2.115
    1GLY    HA2 1559   2.408   2.588   2.097
    1GLY     H3 1560   2.589   2.749   2.112
    1GLY      N 1561   2.128   2.817   1.961
    1GLY     CA 1562   2.255   2.783   1.892
    1GLY      C 1563   2.242   2.798   1.740
    1GLY      O 1564   2.125   2.807   1.691
    1GLY     O1 1565   2.350   2.797   1.674
    1GLY     H1 1566   2.136   2.809   2.065
    1GLY     H2 1567   2.104   2.916   1.936
    1GLY    HA1 1568   2.336   2.846   1.932
    1GLY    HA2 1569   2.280   2.677   1.914
    1GLY     H3 1570   2.050   2.754   1.929
    1GLY      N 1571   2.926   2.321   2.327
    1GLY     CA 1572   2.892   2.448   2.258
    1GLY      C 1573   2.885   2.429   2.106
    1GLY      O 1574   2.936   2.323   2.058
    1GLY     O1 1575   2.832   2.523   2.040
    1GLY     H1 1576   2.929   2.332   2.432
    1GLY     H2 1577   2.852   2.250   2.303
    1GLY    HA1 1578   2.797   2.486   2.298
    1GLY    HA2 1579   2.971   2.522   2.280
    1GLY     H3 1580   3.019   2.285   2.295
    1GLY      N 1581   2.604   2.650   2.693
    1GLY     CA 1582   2.511   2.557   2.624
    1GLY      C 1583   2.531   2.560   2.472
    1GLY      O 1584   2.597   2.657   2.424
    1GLY     O1 1585   2.477   2.467   2.407
    1GLY     H1 1586   2.594   2.647   2.798
    1GLY     H2 1587   2.703   2.621   2.669
    1GLY    HA1 1588   2.526   2.455   2.664
    1GLY    HA2 1589   2.408   2.588   2.647
    1GLY     H3 1590   2.589   2.749   2.661
    1GLY      N 1591   2.128   2.817   2.510
    1GLY     CA 1592   2.255   2.783   2.441
    1GLY      C 1593   2.242   2.798   2.289
    1GLY      O 1594   2.125   2.807   2.241
    1GLY     O1 1595   2.350   2.797   2.224
    1GLY     H1 1596   2.136   2.809   2.615
    1GLY     H2 1597   2.104   2.916   2.486
    1GLY    HA1 1598   2.336   2.846   2.481
    1GLY    HA2 1599   2.280   2.677   2.464
    1GLY     H3 1600   2.050   2.754   2.478
    1GLY      N 1601   2.926   2.321   2.876
    1GLY     CA 1602   2.892   2.448   2.807
    1GLY      C 1603   2.885   2.429   2.655
    1GLY      O 1604   2.936   2.323   2.607
    1GLY     O1 1605   2.832   2.523   2.590
    1GLY     H1 1606   2.929   2.332   2.981
    1GLY     H2 1607   2.852   2.250   2.852
    1GLY    HA1 1608   2.797   2.486   2.847
    1GLY    HA2 1609   2.971   2.522   2.830
    1GLY     H3 1610   3.019   2.285   2.844
    1GLY      N 1611   2.604   2.650   3.242
    1GLY     CA 1612   2.511   2.557   3.173
    1GLY      C 1613   2.531   2.560   3.021
    1GLY      O 1614   2.597   2.657   2.973
    1GLY     O1 1615   2.477   2.467   2.956
    1GLY     H1 1616   2.594   2.647   3.347
    1GLY     H2 1617   2.703   2.621   3.218
    1GLY    HA1 1618   2.526   2.455   3.213
    1GLY    HA2 1619   2.408   2.588   3.196
    1GLY     H3 1620   2.589   2.749   3.210
    1GLY      N 1621   2.128   2.817   3.059
    1GLY     CA 1622   2.255   2.783   2.990
    1GLY      C 1623   2.242   2.798   2.838
    1GLY      O 1624   2.125   2.807   2.790
    1GLY     O1 1625   2.350   2.797   2.773
    1GLY     H1 1626   2.136   2.809   3.164
    1GLY     H2 1627   2.104   2.916   3.035
    1GLY    HA1 1628   2.336   2.846   3.030
    1GLY    HA2 1629   2.280   2.677   3.013
    1GLY     H3 1630   2.050   2.754   3.027
    1GLY      N 1631   2.926   2.321   3.425
    1GLY     CA 1632   2.892   2.448   3.356
    1GLY      C 1633   2.885   2.429   3.204
    1GLY      O 1634   2.936   2.323   3.156
    1GLY     O1 1635   2.832   2.523   3.139
    1GLY     H1 1636   2.929   2.332   3.530
    1GLY     H2 1637   2.852   2.250   3.401
    1GLY    HA1 1638   2.797   2.486   3.396
    1GLY    HA2 1639   2.971   2.522   3.379
    1GLY     H3 1640   3.019   2.285   3.393
    1GLY      N 1641   2.604   2.650   3.791
    1GLY     CA 1642   2.511   2.557   3.722
    1GLY      C 1643   2.531   2.560   3.570
    1GLY      O 1644   2.597   2.657   3.522
    1GLY     O1 1645   2.477   2.467   3.505
    1GLY     H1 1646   2.594   2.647   3.896
    1GLY     H2 1647   2.703   2.621   3.767
    1GLY    HA1 1648   2.526   2.455   3.762
    1GLY    HA2 1649   2.408   2.588   3.745
    1GLY     H3 1650   2.589   2.749   3.759
    1GLY      N 1651   2.128   2.817   3.608
    1GLY     CA 1652   2.255   2.783   3.539
    1GLY      C 1653   2.242   2.798   3.387
    1GLY      O 1654   2.125   2.807   3.339
    1GLY     O1 1655   2.350   2.797   3.322
    1GLY     H1 1656   2.136   2.809   3.713
    1GLY     H2 1657   2.104   2.916   3.584
    1GLY    HA1 1658   2.336   2.846   3.579
    1GLY    HA2 1659   2.280   2.677   3.562
    1GLY     H3 1660   2.050   2.754   3.576
    1GLY      N 1661   2.926   2.321   3.974
    1GLY     CA 1662   2.892   2.448   3.905
    1GLY      C 1663   2.885   2.429   3.754
    1GLY      O 1664   2.936   2.323   3.705
    1GLY     O1 1665   2.832   2.523   3.688
    1GLY     H1 1666   2.929   2.332   4.079
    1GLY     H2 1667   2.852   2.250   3.950
    1GLY    HA1 1668   2.797   2.486   3.945
    1GLY    HA2 1669   2.971   2.522   3.928
    1GLY     H3 1670   3.019   2.285   3.942
    1GLY      N 1671   2.128   2.817   4.157
    1GLY     CA 1672   2.255   2.783   4.088
    1GLY      C 1673   2.242   2.798   3.937
    1GLY      O 1674   2.125   2.807   3.888
    1GLY     O1 1675   2.350   2.797   3.871
    1GLY     H1 1676   2.136   2.809   4.262
    1GLY     H2 1677   2.104   2.916   4.133
    1GLY    HA1 1678   2.336   2.846   4.128
    1GLY    HA2 1679   2.280   2.677   4.111
    1GLY     H3 1680   2.050   2.754   4.125
    1GLY      N 1681   2.252   3.260   1.045
    1GLY     CA 1682   2.159   3.167   0.977
    1GLY      C 1683   2.179   3.170   0.825
    1GLY      O 1684   2.245   3.267   0.776
    1GLY     O1 1685   2.124   3.078   0.759
    1GLY     H1 1686   2.241   3.257   1.150
    1GLY     H2 1687   2.350   3.231   1.021
    1GLY    HA1 1688   2.174   3.065   1.017
    1GLY    HA2 1689   2.055   3.198   0.999
    1GLY     H3 1690   2.237   3.359   1.013
    1GLY      N 1691   2.574   2.931   1.228
    1GLY     CA 1692   2.540   3.058   1.160
    1GLY      C 1693   2.533   3.039   1.008
    1GLY      O 1694   2.584   2.934   0.959
    1GLY     O1 1695   2.480   3.133   0.942
    1GLY     H1 1696   2.576   2.942   1.333
    1GLY     H2 1697   2.500   2.860   1.204
    1GLY    HA1 1698   2.445   3.096   1.200
    1GLY    HA2 1699   2.619   3.132   1.182
    1GLY     H3 1700   2.667   2.895   1.197
    1GLY      N 1701   2.252   3.260   1.594
    1GLY     CA 1702   2.159   3.167   1.526
    1GLY      C 1703   2.179   3.170   1.374
    1GLY      O 1704   2.245   3.267   1.325
    1GLY     O1 1705   2.124   3.078   1.308
    1GLY     H1 1706   2.241   3.257   1.699
    1GLY     H2 1707   2.350   3.231   1.570
    1GLY    HA1 1708   2.174   3.065   1.566
    1GLY    HA2 1709   2.055   3.198   1.548
    1GLY     H3 1710   2.237   3.359   1.563
    1GLY      N 1711   1.776   3.427   1.411
    1GLY     CA 1712   1.903   3.393   1.343
    1GLY      C 1713   1.890   3.409   1.191
    1GLY      O 1714   1.773   3.417   1.142
    1GLY     O1 1715   1.998   3.407   1.125
    1GLY     H1 1716   1.784   3.419   1.516
    1GLY     H2 1717   1.751   3.527   1.387
    1GLY    HA1 1718   1.984   3.456   1.383
    1GLY    HA2 1719   1.927   3.287   1.365
    1GLY     H3 1720   1.698   3.364   1.380
    1GLY      N 1721   2.574   2.931   1.778
    1GLY     CA 1722   2.540   3.058   1.709
    1GLY      C 1723   2.533   3.039   1.557
    1GLY      O 1724   2.584   2.934   1.508
    1GLY     O1 1725   2.480   3.133   1.491
    1GLY     H1 1726   2.576   2.942   1.882
    1GLY     H2 1727   2.500   2.860   1.753
    1GLY    HA1 1728   2.445   3.096   1.749
    1GLY    HA2 1729   2.619   3.132   1.731
    1GLY     H3 1730   2.667   2.895   1.746
    1GLY      N 1731   2.252   3.260   2.144
    1GLY     CA 1732   2.159   3.167   2.075
    1GLY      C 1733   2.179   3.170   1.923
    1GLY      O 1734   2.245   3.267   1.875
    1GLY     O1 1735   2.124   3.078   1.857
    1GLY     H1 1736   2.241   3.257   2.249
    1GLY     H2 1737   2.350   3.231   2.120
    1GLY    HA1 1738   2.174   3.065   2.115
    1GLY    HA2 1739   2.055   3.198   2.097
    1GLY     H3 1740   2.237   3.359   2.112
    1GLY      N 1741   1.776   3.427   1.961
    1GLY     CA 1742   1.903   3.393   1.892
    1GLY      C 1743   1.890   3.409   1.740
    1GLY      O 1744   1.773   3.417   1.691
    1GLY     O1 1745   1.998   3.407   1.674
    1GLY     H1 1746   1.784   3.419   2.065
    1GLY     H2 1747   1.751   3.527   1.936
    1GLY    HA1 1748   1.984   3.456   1.932
    1GLY    HA2 1749   1.927   3.287   1.914
    1GLY     H3 1750   1.698   3.364   1.929
    1GLY      N 1751   2.574   2.931   2.327
    1GLY     CA 1752   2.540   3.058   2.258
    1GLY      C 1753   2.533   3.039   2.106
    1GLY      O 1754   2.584   2.934   2.058
    1GLY     O1 1755   2.480   3.133   2.040
    1GLY     H1 1756   2.576   2.942   2.432
    1GLY     H2 1757   2.500   2.860   2.303
    1GLY    HA1 1758   2.445   3.096   2.298
    1GLY    HA2 1759   2.619   3.132   2.280
    1GLY     H3 1760   2.667   2.895   2.295
    1GLY      N 1761   2.252   3.260   2.693
    1GLY     CA 1762   2.159   3.167   2.624
    1GLY      C 1763   2.179   3.170   2.472
    1GLY      O 1764   2.245   3.267   2.424
    1GLY     O1 1765   2.124   3.078   2.407
    1GLY     H1 1766   2.241   3.257   2.798
    1GLY     H2 1767   2.350   3.231   2.669
    1GLY    HA1 1768   2.174   3.065   2.664
    1GLY    HA2 1769   2.055   3.198   2.647
    1GLY     H3 1770   2.237   3.359   2.661
    1GLY      N 1771   1.776   3.427   2.510
    1GLY     CA 1772   1.903   3.393   2.441
    1GLY      C 1773   1.890   3.409   2.289
    1GLY      O 1774   1.773   3.417   2.241
    1GLY     O1 1775   1.998   3.407   2.224
    1GLY     H1 1776   1.784   3.419   2.615
    1GLY     H2 1777   1.751   3.527   2.486
    1GLY    HA1 1778   1.984   3.456   2.481
    1GLY    HA2 1779   1.927   3.287   2.464
    1GLY     H3 1780   1.698   3.364   2.478
    1GLY      N 1781   2.574   2.931   2.876
    1GLY     CA 1782   2.540   3.058   2.807
    1GLY      C 1783   2.533   3.039   2.655
    1GLY      O 1784   2.584   2.934   2.607
    1GLY     O1 1785   2.480   3.133   2.590
    1GLY     H1 1786   2.576   2.942   2.981
    1GLY     H2 1787   2.500   2.860   2.852
    1GLY    HA1 1788   2.445   3.096   2.847
    1GLY    HA2 1789   2.619   3.132   2.830
    1GLY     H3 1790   2.667   2.895   2.844
    1GLY      N 1791   2.252   3.260   3.242
    1GLY     CA 1792   2.159   3.167   3.173
    1GLY      C 1793   2.179   3.170   3.021
    1GLY      O 1794   2.245   3.267   2.973
    1GLY     O1 1795   2.124   3.078   2.956
    1GLY     H1 1796   2.241   3.257   3.347
    1GLY     H2 1797   2.350   3.231   3.218
    1GLY    HA1 1798   2.174   3.065   3.213
    1GLY    HA2 1799   2.055   3.198   3.196
    1GLY     H3 1800   2.237   3.359   3.210
    1GLY      N 1801   1.776   3.427   3.059
    1GLY     CA 1802   1.903   3.393   2.990
    1GLY      C 1803   1.890   3.409   2.838
    1GLY      O 1804   1.773   3.417   2.790
    1GLY     O1 1805   1.998   3.407   2.773
    1GLY     H1 1806   1.784   3.419   3.164
    1GLY     H2 1807   1.751   3.527   3.035
    1GLY    HA1 1808   1.984   3.456   3.030
    1GLY    HA2 1809   1.927   3.287   3.013
    1GLY     H3 1810   1.698   3.364   3.027
    1GLY      N 1811   2.574   2.931   3.425
    1GLY     CA 1812   2.540   3.058   3.356
    1GLY      C 1813   2.533   3.039   3.204
    1GLY      O 1814   2.584   2.934   3.156
    1GLY     O1 1815   2.480   3.133   3.139
    1GLY     H1 1816   2.576   2.942   3.530
    1GLY     H2 1817   2.500   2.860   3.401
    1GLY    HA1 1818   2.445   3.096   3.396
    1GLY    HA2 1819   2.619   3.132   3.379
    1GLY     H3 1820   2.667   2.895   3.393
    1GLY      N 1821   2.252   3.260   3.791
    1GLY     CA 1822   2.159   3.167   3.722
    1GLY      C 1823   2.179   3.170   3.570
    1GLY      O 1824   2.245   3.267   3.522
    1GLY     O1 1825   2.124   3.078   3.505
    1GLY     H1 1826   2.241   3.257   3.896
    1GLY     H2 1827   2.350   3.231   3.767
    1GLY    HA1 1828   2.174   3.065   3.762
    1GLY    HA2 1829   2.055   3.198   3.745
    1GLY     H3 1830   2.237   3.359   3.759
    1GLY      N 1831   1.776   3.427   3.608
    1GLY     CA 1832   1.903   3.393   3.539
    1GLY      C 1833   1.890   3.409   3.387
    1GLY      O 1834   1.773   3.417   3.339
    1GLY     O1 1835   1.998   3.407   3.322
    1GLY     H1 1836   1.784   3.419   3.713
    1GLY     H2 1837   1.751   3.527   3.584
    1GLY    HA1 1838   1.984   3.456   3.579
    1GLY    HA2 1839   1.927   3.287   3.562
    1GLY     H3 1840   1.698   3.364   3.576
    1GLY      N 1841   2.574   2.931   3.974
    1GLY     CA 1842   2.540   3.058   3.905
    1GLY      C 1843   2.533   3.039   3.754
    1GLY      O 1844   2.584   2.934   3.705
    1GLY     O1 1845   2.480   3.133   3.688
    1GLY     H1 1846   2.576   2.942   4.079
    1GLY     H2 1847   2.500   2.860   3.950
    1GLY    HA1 1848   2.445   3.096   3.945
    1GLY    HA2 1849   2.619   3.132   3.928
    1GLY     H3 1850   2.667   2.895   3.942
    1GLY      N 1851   1.900   3.871   1.594
    1GLY     CA 1852   1.806   3.777   1.526
    1GLY      C 1853   1.827   3.780   1.374
    1GLY      O 1854   1.892   3.878   1.325
    1GLY     O1 1855   1.772   3.688   1.308
    1GLY     H1 1856   1.889   3.867   1.699
    1GLY     H2 1857   1.998   3.842   1.570
    1GLY    HA1 1858   1.821   3.676   1.566
    1GLY    HA2 1859   1.703   3.809   1.548
    1GLY     H3 1860   1.884   3.969   1.563
    1GLY      N 1861   2.222   3.541   1.778
    1GLY     CA 1862   2.188   3.669   1.709
    1GLY      C 1863   2.180   3.649   1.557
    1GLY      O 1864   2.232   3.544   1.508
    1GLY     O1 1865   2.128   3.743   1.491
    1GLY     H1 1866   2.224   3.552   1.882
    1GLY     H2 1867   2.148   3.470   1.753
    1GLY    HA1 1868   2.092   3.707   1.749
    1GLY    HA2 1869   2.267   3.742   1.731
    1GLY     H3 1870   2.315   3.505   1.746
    1GLY      N 1871   1.900   3.871   2.144
    1GLY     CA 1872   1.806   3.777   2.075
    1GLY      C 1873   1.827   3.780   1.923
    1GLY      O 1874   1.892   3.878   1.875
    1GLY     O1 1875   1.772   3.688   1.857
    1GLY     H1 1876   1.889   3.867   2.249
    1GLY     H2 1877   1.998   3.842   2.120
    1GLY    HA1 1878   1.821   3.676   2.115
    1GLY    HA2 1879   1.703   3.809   2.097
    1GLY     H3 1880   1.884   3.969   2.112
    1GLY      N 1881   2.222   3.541   2.327
    1GLY     CA 1882   2.188   3.669   2.258
    1GLY      C 1883   2.180   3.649   2.106
    1GLY      O 1884   2.232   3.544   2.058
    1GLY     O1 1885   2.128   3.743   2.040
    1GLY     H1 1886   2.224   3.552   2.432
    1GLY     H2 1887   2.148   3.470   2.303
    1GLY    HA1 1888   2.092   3.707   2.298
    1GLY    HA2 1889   2.267   3.742   2.280
    1GLY     H3 1890   2.315   3.505   2.295
    1GLY      N 1891   1.900   3.871   2.693
    1GLY     CA 1892   1.806   3.777   2.624
    1GLY      C 1893   1.827   3.780   2.472
    1GLY      O 1894   1.892   3.878   2.424
    1GLY     O1 1895   1.772   3.688   2.407
    1GLY     H1 1896   1.889   3.867   2.798
    1GLY     H2 1897   1.998   3.842   2.669
    1GLY    HA1 1898   1.821   3.676   2.664
    1GLY    HA2 1899   1.703   3.809   2.647
    1GLY     H3 1900   1.884   3.969   2.661
    1GLY      N 1901   2.222   3.541   2.876
    1GLY     CA 1902   2.188   3.669   2.807
    1GLY      C 1903   2.180   3.649   2.655
    1GLY      O 1904   2.232   3.544   2.607
    1GLY     O1 1905   2.128   3.743   2.590
    1GLY     H1 1906   2.224   3.552   2.981
    1GLY     H2 1907   2.148   3.470   2.852
    1GLY    HA1 1908   2.092   3.707   2.847
    1GLY    HA2 1909   2.267   3.742   2.830
    1GLY     H3 1910   2.315   3.505   2.844
    1GLY      N 1911   1.900   3.871   3.242
    1GLY     CA 1912   1.806   3.777   3.173
    1GLY      C 1913   1.827   3.780   3.021
    1GLY      O 1914   1.892   3.878   2.973
    1GLY     O1 1915   1.772   3.688   2.956
    1GLY     H1 1916   1.889   3.867   3.347
    1GLY     H2 1917   1.998   3.842   3.218
    1GLY    HA1 1918   1.821   3.676   3.213
    1GLY    HA2 1919   1.703   3.809   3.196
    1GLY     H3 1920   1.884   3.969   3.210
    1GLY      N 1921   2.222   3.541   3.425
    1GLY     CA 1922   2.188   3.669   3.356
    1GLY      C 1923   2.180   3.649   3.204
    1GLY      O 1924   2.232   3.544   3.156
    1GLY     O1 1925   2.128   3.743   3.139
    1GLY     H1 1926   2.224   3.552   3.530
    1GLY     H2 1927   2.148   3.470   3.401
    1GLY    HA1 1928   2.092   3.707   3.396
    1GLY    HA2 1929   2.267   3.742   3.379
    1GLY     H3 1930   2.315   3.505   3.393
    1GLY      N 1931   3.537   1.596   1.961
    1GLY     CA 1932   3.665   1.562   1.892
    1GLY      C 1933   3.652   1.578   1.740
    1GLY      O 1934   3.534   1.586   1.691
    1GLY     O1 1935   3.759   1.577   1.674
    1GLY     H1 1936   3.545   1.589   2.065
    1GLY     H2 1937   3.513   1.696   1.936
    1GLY    HA1 1938   3.745   1.626   1.932
    1GLY    HA2 1939   3.689   1.457   1.914
    1GLY     H3 1940   3.459   1.534   1.929
    1GLY      N 1941   3.537   1.596   2.510
    1GLY     CA 1942   3.665   1.562   2.441
    1GLY      C 1943   3.652   1.578   2.289
    1GLY      O 1944   3.534   1.586   2.241
    1GLY     O1 1945   3.759   1.577   2.224
    1GLY     H1 1946   3.545   1.589   2.615
    1GLY     H2 1947   3.513   1.696   2.486
    1GLY    HA1 1948   3.745   1.626   2.481
    1GLY    HA2 1949   3.689   1.457   2.464
    1GLY     H3 1950   3.459   1.534   2.478
    1GLY      N 1951   3.537   1.596   3.059
    1GLY     CA 1952   3.665   1.562   2.990
    1GLY      C 1953   3.652   1.578   2.838
    1GLY      O 1954   3.534   1.586   2.790
    1GLY     O1 1955   3.759   1.577   2.773
    1GLY     H1 1956   3.545   1.589   3.164
    1GLY     H2 1957   3.513   1.696   3.035
    1GLY    HA1 1958   3.745   1.626   3.030
    1GLY    HA2 1959   3.689   1.457   3.013
    1GLY     H3 1960   3.459   1.534   3.027
    1GLY      N 1961   3.661   2.040   1.594
    1GLY     CA 1962   3.568   1.946   1.526
    1GLY      C 1963   3.588   1.950   1.374
    1GLY      O 1964   3.654   2.047   1.325
    1GLY     O1 1965   3.533   1.857   1.308
    1GLY     H1 1966   3.650   2.036   1.699
    1GLY     H2 1967   3.760   2.011   1.570
    1GLY    HA1 1968   3.583   1.845   1.566
    1GLY    HA2 1969   3.465   1.978   1.548
    1GLY     H3 1970   3.646   2.138   1.563
    1GLY      N 1971   3.185   2.206   1.411
    1GLY     CA 1972   3.312   2.172   1.343
    1GLY      C 1973   3.299   2.188   1.191
    1GLY      O 1974   3.182   2.197   1.142
    1GLY     O1 1975   3.407   2.187   1.125
    1GLY     H1 1976   3.193   2.199   1.516
    1GLY     H2 1977   3.160   2.306   1.387
    1GLY    HA1 1978   3.393   2.236   1.383
    1GLY    HA2 1979   3.337   2.067   1.365
    1GLY     H3 1980   3.107   2.144   1.380
    1GLY      N 1981   3.983   1.711   1.778
    1GLY     CA 1982   3.949   1.838   1.709
    1GLY      C 1983   3.942   1.819   1.557
    1GLY      O 1984   3.993   1.713   1.508
    1GLY     O1 1985   3.889   1.912   1.491
    1GLY     H1 1986   3.986   1.722   1.882
    1GLY     H2 1987   3.909   1.640   1.753
    1GLY    HA1 1988   3.854   1.876   1.749
    1GLY    HA2 1989   4.028   1.912   1.731
    1GLY     H3 1990   4.076   1.675   1.746
    1GLY      N 1991   3.661   2.040   2.144
    1GLY     CA 1992   3.568   1.946   2.075
    1GLY      C 1993   3.588   1.950   1.923
    1GLY      O 1994   3.654   2.047   1.875
    1GLY     O1 1995   3.533   1.857   1.857
    1GLY     H1 1996   3.650   2.036   2.249
    1GLY     H2 1997   3.760   2.011   2.120
    1GLY    HA1 1998   3.583   1.845   2.115
    1GLY    HA2 1999   3.465   1.978   2.097
    1GLY     H3 2000   3.646   2.138   2.112
    1GLY      N 2001   3.185   2.206   1.961
    1GLY     CA 2002   3.312   2.172   1.892
    1GLY      C 2003   3.299   2.188   1.740
    1GLY      O 2004   3.182   2.197   1.691
    1GLY     O1 2005   3.407   2.187   1.674
    1GLY     H1 2006   3.193   2.199   2.065
    1GLY     H2 2007   3.160   2.306   1.936
    1GLY    HA1 2008   3.393   2.236   1.932
    1GLY    HA2 2009   3.337   2.067   1.914
    1GLY     H3 2010   3.107   2.144   1.929
    1GLY      N 2011   3.983   1.711   2.327
    1GLY     CA 2012   3.949   1.838   2.258
    1GLY      C 2013   3.942   1.819   2.106
    1GLY      O 2014   3.993   1.713   2.058
    1GLY     O1 2015   3.889   1.912   2.040
    1GLY     H1 2016   3.986   1.722   2.432
    1GLY     H2 2017   3.909   1.640   2.303
    1GLY    HA1 2018   3.854   1.876   2.298
    1GLY    HA2 2019   4.028   1.912   2.280
    1GLY     H3 2020   4.076   1.675   2.295
    1GLY      N 2021   3.661   2.040   2.693
    1GLY     CA 2022   3.568   1.946   2.624
    1GLY      C 2023   3.588   1.950   2.472
    1GLY      O 2024   3.654   2.047   2.424
    1GLY     O1 2025   3.533   1.857   2.407
    1GLY     H1 2026   3.650   2.036   2.798
    1GLY     H2 2027   3.760   2.011   2.669
    1GLY    HA1 2028   3.583   1.845   2.664
    1GLY    HA2 2029   3.465   1.978   2.647
    1GLY     H3 2030   3.646   2.138   2.661
    1GLY      N 2031   3.185   2.206   2.510
    1GLY     CA 2032   3.312   2.172   2.441
    1GLY      C 2033   3.299   2.188   2.289
    1GLY      O 2034   3.182   2.197   2.241
    1GLY     O1 2035   3.407   2.187   2.224
    1GLY     H1 2036   3.193   2.199   2.615
    1GLY     H2 2037   3.160   2.306   2.486
    1GLY    HA1 2038   3.393   2.236   2.481
    1GLY    HA2 2039   3.337   2.067   2.464
    1GLY     H3 2040   3.107   2.144   2.478
    1GLY      N 2041   3.983   1.711   2.876
    1GLY     CA 2042   3.949   1.838   2.807
    1GLY      C 2043   3.942   1.819   2.655
    1GLY      O 2044   3.993   1.713   2.607
    1GLY     O1 2045   3.889   1.912   2.590
    1GLY     H1 2046   3.986   1.722   2.981
    1GLY     H2 2047   3.909   1.640   2.852
    1GLY    HA1 2048   3.854   1.876   2.847
    1GLY    HA2 2049   4.028   1.912   2.830
    1GLY     H3 2050   4.076   1.675   2.844
    1GLY      N 2051   3.661   2.040   3.242
    1GLY     CA 2052   3.568   1.946   3.173
    1GLY      C 2053   3.588   1.950   3.021
    1GLY      O 2054   3.654   2.047   2.973
    1GLY     O1 2055   3.533   1.857   2.956
    1GLY     H1 2056   3.650   2.036   3.347
    1GLY     H2 2057   3.760   2.011   3.218
    1GLY    HA1 2058   3.583   1.845   3.213
    1GLY    HA2 2059   3.465   1.978   3.196
    1GLY     H3 2060   3.646   2.138   3.210
    1GLY      N 2061   3.185   2.206   3.059
    1GLY     CA 2062   3.312   2.172   2.990
    1GLY      C 2063   3.299   2.188   2.838
    1GLY      O 2064   3.182   2.197   2.790
    1GLY     O1 2065   3.407   2.187   2.773
    1GLY     H1 2066   3.193   2.199   3.164
    1GLY     H2 2067   3.160   2.306   3.035
    1GLY    HA1 2068   3.393   2.236   3.030
    1GLY    HA2 2069   3.337   2.067   3.013
    1GLY     H3 2070   3.107   2.144   3.027
    1GLY      N 2071   3.661   2.040   3.791
    1GLY     CA 2072   3.568   1.946   3.722
    1GLY      C 2073   3.588   1.950   3.570
    1GLY      O 2074   3.654   2.047   3.522
    1GLY     O1 2075   3.533   1.857   3.505
    1GLY     H1 2076   3.650   2.036   3.896
    1GLY     H2 2077   3.760   2.011   3.767
    1GLY    HA1 2078   3.583   1.845   3.762
    1GLY    HA2 2079   3.465   1.978   3.745
    1GLY     H3 2080   3.646   2.138   3.759
    1GLY      N 2081   3.185   2.206   3.608
    1GLY     CA 2082   3.312   2.172   3.539
    1GLY      C 2083   3.299   2.188   3.387
    1GLY      O 2084   3.182   2.197   3.339
    1GLY     O1 2085   3.407   2.187   3.322
    1GLY     H1 2086   3.193   2.199   3.713
    1GLY     H2 2087   3.160   2.306   3.584
    1GLY    HA1 2088   3.393   2.236   3.579
    1GLY    HA2 2089   3.337   2.067   3.562
    1GLY     H3 2090   3.107   2.144   3.576
    1GLY      N 2091   3.309   2.650   1.045
    1GLY     CA 2092   3.216   2.557   0.977
    1GLY      C 2093   3.236   2.560   0.825
    1GLY      O 2094   3.302   2.657   0.776
    1GLY     O1 2095   3.181   2.467   0.759
    1GLY     H1 2096   3.298   2.647   1.150
    1GLY     H2 2097   3.407   2.621   1.021
    1GLY    HA1 2098   3.230   2.455   1.017
    1GLY    HA2 2099   3.112   2.588   0.999
    1GLY     H3 2100   3.293   2.749   1.013
    1GLY      N 2101   3.631   2.321   1.228
    1GLY     CA 2102   3.597   2.448   1.160
    1GLY      C 2103   3.590   2.429   1.008
    1GLY      O 2104   3.641   2.323   0.959
    1GLY     O1 2105   3.537   2.523   0.942
    1GLY     H1 2106   3.633   2.332   1.333
    1GLY     H2 2107   3.557   2.250   1.204
    1GLY    HA1 2108   3.501   2.486   1.200
    1GLY    HA2 2109   3.676   2.522   1.182
    1GLY     H3 2110   3.724   2.285   1.197
    1GLY      N 2111   3.309   2.650   1.594
    1GLY     CA 2112   3.216   2.557   1.526
    1GLY      C 2113   3.236   2.560   1.374
    1GLY      O 2114   3.302   2.657   1.325
    1GLY     O1 2115   3.181   2.467   1.308
    1GLY     H1 2116   3.298   2.647   1.699
    1GLY     H2 2117   3.407   2.621   1.570
    1GLY    HA1 2118   3.230   2.455   1.566
    1GLY    HA2 2119   3.112   2.588   1.548
    1GLY     H3 2120   3.293   2.749   1.563
    1GLY      N 2121   2.832   2.817   1.411
    1GLY     CA 2122   2.960   2.783   1.343
    1GLY      C 2123   2.947   2.798   1.191
    1GLY      O 2124   2.830   2.807   1.142
    1GLY     O1 2125   3.054   2.797   1.125
    1GLY     H1 2126   2.841   2.809   1.516
    1GLY     H2 2127   2.808   2.916   1.387
    1GLY    HA1 2128   3.040   2.846   1.383
    1GLY    HA2 2129   2.984   2.677   1.365
    1GLY     H3 2130   2.755   2.754   1.380
    1GLY      N 2131   3.631   2.321   1.778
    1GLY     CA 2132   3.597   2.448   1.709
    1GLY      C 2133   3.590   2.429   1.557
    1GLY      O 2134   3.641   2.323   1.508
    1GLY     O1 2135   3.537   2.523   1.491
    1GLY     H1 2136   3.633   2.332   1.882
    1GLY     H2 2137   3.557   2.250   1.753
    1GLY    HA1 2138   3.501   2.486   1.749
    1GLY    HA2 2139   3.676   2.522   1.731
    1GLY     H3 2140   3.724   2.285   1.746
    1GLY      N 2141   3.309   2.650   2.144
    1GLY     CA 2142   3.216   2.557   2.075
    1GLY      C 2143   3.236   2.560   1.923
    1GLY      O 2144   3.302   2.657   1.875
    1GLY     O1 2145   3.181   2.467   1.857
    1GLY     H1 2146   3.298   2.647   2.249
    1GLY     H2 2147   3.407   2.621   2.120
    1GLY    HA1 2148   3.230   2.455   2.115
    1GLY    HA2 2149   3.112   2.588   2.097
    1GLY     H3 2150   3.293   2.749   2.112
    1GLY      N 2151   2.832   2.817   1.961
    1GLY     CA 2152   2.960   2.783   1.892
    1GLY      C 2153   2.947   2.798   1.740
    1GLY      O 2154   2.830   2.807   1.691
    1GLY     O1 2155   3.054   2.797   1.674
    1GLY     H1 2156   2.841   2.809   2.065
    1GLY     H2 2157   2.808   2.916   1.936
    1GLY    HA1 2158   3.040   2.846   1.932
    1GLY    HA2 2159   2.984   2.677   1.914
    1GLY     H3 2160   2.755   2.754   1.929
    1GLY      N 2161   3.631   2.321   2.327
    1GLY     CA 2162   3.597   2.448   2.258
    1GLY      C 2163   3.590   2.429   2.106
    1GLY      O 2164   3.641   2.323   2.058
    1GLY     O1 2165   3.537   2.523   2.040
    1GLY     H1 2166   3.633   2.332   2.432
    1GLY     H2 2167   3.557   2.250   2.303
    1GLY    HA1 2168   3.501   2.486   2.298
    1GLY    HA2 2169   3.676   2.522   2.280
    1GLY     H3 2170   3.724   2.285   2.295
    1GLY      N 2171   3.309   2.650   2.693
    1GLY     CA 2172   3.216   2.557   2.624
    1GLY      C 2173   3.236   2.560   2.472
    1GLY      O 2174   3.302   2.657   2.424
    1GLY     O1 2175   3.181   2.467   2.407
    1GLY     H1 2176   3.298   2.647   2.798
    1GLY     H2 2177   3.407   2.621   2.669
    1GLY    HA1 2178   3.230   2.455   2.664
    1GLY    HA2 2179   3.112   2.588   2.647
    1GLY     H3 2180   3.293   2.749   2.661
    1GLY      N 2181   2.832   2.817   2.510
    1GLY     CA 2182   2.960   2.783   2.441
    1GLY      C 2183   2.947   2.798   2.289
    1GLY      O 2184   2.830   2.807   2.241
    1GLY     O1 2185   3.054   2.797   2.224
    1GLY     H1 2186   2.841   2.809   2.615
    1GLY     H2 2187   2.808   2.916   2.486
    1GLY    HA1 2188   3.040   2.846   2.481
    1GLY    HA2 2189   2.984   2.677   2.464
    1GLY     H3 2190   2.755   2.754   2.478
    1GLY      N 2191   3.631   2.321   2.876
    1GLY     CA 2192   3.597   2.448   2.807
    1GLY      C 2193   3.590   2.429   2.655
    1GLY      O 2194   3.641   2.323   2.607
    1GLY     O1 2195   3.537   2.523   2.590
    1GLY     H1 2196   3.633   2.332   2.981
    1GLY     H2 2197   3.557   2.250   2.852
    1GLY    HA1 2198   3.501   2.486   2.847
    1GLY    HA2 2199   3.676   2.522   2.830
    1GLY     H3 2200   3.724   2.285   2.844
    1GLY      N 2201   3.309   2.650   3.242
    1GLY     CA 2202   3.216   2.557   3.173
    1GLY      C 2203   3.236   2.560   3.021
    1GLY      O 2204   3.302   2.657   2.973
    1GLY     O1 2205   3.181   2.467   2.956
    1GLY     H1 2206   3.298   2.647   3.347
    1GLY     H2 2207   3.407   2.621   3.218
    1GLY    HA1 2208   3.230   2.455   3.213
    1GLY    HA2 2209   3.112   2.588   3.196
    1GLY     H3 2210   3.293   2.749   3.210
    1GLY      N 2211   2.832   2.817   3.059
    1GLY     CA 2212   2.960   2.783   2.990
    1GLY      C 2213   2.947   2.798   2.838
    1GLY      O 2214   2.830   2.807   2.790
    1GLY     O1 2215   3.054   2.797   2.773
    1GLY     H1 2216   2.841   2.809   3.164
    1GLY     H2 2217   2.808   2.916   3.035
    1GLY    HA1 2218   3.040   2.846   3.030
    1GLY    HA2 2219   2.984   2.677   3.013
    1GLY     H3 2220   2.755   2.754   3.027
    1GLY      N 2221   3.631   2.321   3.425
    1GLY     CA 2222   3.597   2.448   3.356
    1GLY      C 2223   3.590   2.429   3.204
    1GLY      O 2224   3.641   2.323   3.156
    1GLY     O1 2225   3.537   2.523   3.139
    1GLY     H1 2226   3.633   2.332   3.530
    1GLY     H2 2227   3.557   2.250   3.401
    1GLY    HA1 2228   3.501   2.486   3.396
    1GLY    HA2 2229   3.676   2.522   3.379
    1GLY     H3 2230   3.724   2.285   3.393
    1GLY      N 2231   3.309   2.650   3.791
    1GLY     CA 2232   3.216   2.557   3.722
    1GLY      C 2233   3.236   2.560   3.570
    1GLY      O 2234   3.302   2.657   3.522
    1GLY     O1 2235   3.181   2.467   3.505
    1GLY     H1 2236   3.298   2.647   3.896
    1GLY     H2 2237   3.407   2.621   3.767
    1GLY    HA1 2238   3.230   2.455   3.762
    1GLY    HA2 2239   3.112   2.588   3.745
    1GLY     H3 2240   3.293   2.749   3.759
    1GLY      N 2241   2.832   2.817   3.608
    1GLY     CA 2242   2.960   2.783   3.539
    1GLY      C 2243   2.947   2.798   3.387
    1GLY      O 2244   2.830   2.807   3.339
    1GLY     O1 2245   3.054   2.797   3.322
    1GLY     H1 2246   2.841   2.809   3.713
    1GLY     H2 2247   2.808   2.916   3.584
    1GLY    HA1 2248   3.040   2.846   3.579
    1GLY    HA2 2249   2.984   2.677   3.562
    1GLY     H3 2250   2.755   2.754   3.576
    1GLY      N 2251   3.631   2.321   3.974
    1GLY     CA 2252   3.597   2.448   3.905
    1GLY      C 2253   3.590   2.429   3.754
    1GLY      O 2254   3.641   2.323   3.705
    1GLY     O1 2255   3.537   2.523   3.688
    1GLY     H1 2256   3.633   2.332   4.079
    1GLY     H2 2257   3.557   2.250   3.950
    1GLY    HA1 2258   3.501   2.486   3.945
    1GLY    HA2 2259   3.676   2.522   3.928
    1GLY     H3 2260   3.724   2.285   3.942
    1GLY      N 2261   2.832   2.817   4.157
    1GLY     CA 2262   2.960   2.783   4.088
    1GLY      C 2263   2.947   2.798   3.937
    1GLY      O 2264   2.830   2.807   3.888
    1GLY     O1 2265   3.054   2.797   3.871
    1GLY     H1 2266   2.841   2.809   4.262
    1GLY     H2 2267   2.808   2.916   4.133
    1GLY    HA1 2268   3.040   2.846   4.128
    1GLY    HA2 2269   2.984   2.677   4.111
    1GLY     H3 2270   2.755   2.754   4.125
    1GLY      N 2271   2.957   3.260   1.045
    1GLY     CA 2272   2.863   3.167   0.977
    1GLY      C 2273   2.884   3.170   0.825
    1GLY      O 2274   2.949   3.267   0.776
    1GLY     O1 2275   2.829   3.078   0.759
    1GLY     H1 2276   2.946   3.257   1.150
    1GLY     H2 2277   3.055   3.231   1.021
    1GLY    HA1 2278   2.878   3.065   1.017
    1GLY    HA2 2279   2.760   3.198   0.999
    1GLY     H3 2280   2.941   3.359   1.013
    1GLY      N 2281   3.279   2.931   1.228
    1GLY     CA 2282   3.244   3.058   1.160
    1GLY      C 2283   3.237   3.039   1.008
    1GLY      O 2284   3.289   2.934   0.959
    1GLY     O1 2285   3.184   3.133   0.942
    1GLY     H1 2286   3.281   2.942   1.333
    1GLY     H2 2287   3.205   2.860   1.204
    1GLY    HA1 2288   3.149   3.096   1.200
    1GLY    HA2 2289   3.323   3.132   1.182
    1GLY     H3 2290   3.372   2.895   1.197
    1GLY      N 2291   2.957   3.260   1.594
    1GLY     CA 2292   2.863   3.167   1.526
    1GLY      C 2293   2.884   3.170   1.374
    1GLY      O 2294   2.949   3.267   1.325
    1GLY     O1 2295   2.829   3.078   1.308
    1GLY     H1 2296   2.946   3.257   1.699
    1GLY     H2 2297   3.055   3.231   1.570
    1GLY    HA1 2298   2.878   3.065   1.566
    1GLY    HA2 2299   2.760   3.198   1.548
    1GLY     H3 2300   2.941   3.359   1.563
    1GLY      N 2301   2.480   3.427   1.411
    1GLY     CA 2302   2.608   3.393   1.343
    1GLY      C 2303   2.595   3.409   1.191
    1GLY      O 2304   2.478   3.417   1.142
    1GLY     O1 2305   2.702   3.407   1.125
    1GLY     H1 2306   2.489   3.419   1.516
    1GLY     H2 2307   2.456   3.527   1.387
    1GLY    HA1 2308   2.688   3.456   1.383
    1GLY    HA2 2309   2.632   3.287   1.365
    1GLY     H3 2310   2.403   3.364   1.380
    1GLY      N 2311   3.279   2.931   1.778
    1GLY     CA 2312   3.244   3.058   1.709
    1GLY      C 2313   3.237   3.039   1.557
    1GLY      O 2314   3.289   2.934   1.508
    1GLY     O1 2315   3.184   3.133   1.491
    1GLY     H1 2316   3.281   2.942   1.882
    1GLY     H2 2317   3.205   2.860   1.753
    1GLY    HA1 2318   3.149   3.096   1.749
    1GLY    HA2 2319   3.323   3.132   1.731
    1GLY     H3 2320   3.372   2.895   1.746
    1GLY      N 2321   2.957   3.260   2.144
    1GLY     CA 2322   2.863   3.167   2.075
    1GLY      C 2323   2.884   3.170   1.923
    1GLY      O 2324   2.949   3.267   1.875
    1GLY     O1 2325   2.829   3.078   1.857
    1GLY     H1 2326   2.946   3.257   2.249
    1GLY     H2 2327   3.055   3.231   2.120
    1GLY    HA1 2328   2.878   3.065   2.115
    1GLY    HA2 2329   2.760   3.198   2.097
    1GLY     H3 2330   2.941   3.359   2.112
    1GLY      N 2331   2.480   3.427   1.961
    1GLY     CA 2332   2.608   3.393   1.892
    1GLY      C 2333   2.595   3.409   1.740
    1GLY      O 2334   2.478   3.417   1.691
    1GLY     O1 2335   2.702   3.407   1.674
    1GLY     H1 2336   2.489   3.419   2.065
    1GLY     H2 2337   2.456   3.527   1.936
    1GLY    HA1 2338   2.688   3.456   1.932
    1GLY    HA2 2339   2.632   3.287   1.914
    1GLY     H3 2340   2.403   3.364   1.929
    1GLY      N 2341   3.279   2.931   2.327
    1GLY     CA 2342   3.244   3.058   2.258
    1GLY      C 2343   3.237   3.039   2.106
    1GLY      O 2344   3.289   2.934   2.058
    1GLY     O1 2345   3.184   3.133   2.040
    1GLY     H1 2346   3.281   2.942   2.432
    1GLY     H2 2347   3.205   2.860   2.303
    1GLY    HA1 2348   3.149   3.096   2.298
    1GLY    HA2 2349   3.323   3.132   2.280
    1GLY     H3 2350   3.372   2.895   2.295
    1GLY      N 2351   2.957   3.260   2.693
    1GLY     CA 2352   2.863   3.167   2.624
    1GLY      C 2353   2.884   3.170   2.472
    1GLY      O 2354   2.949   3.267   2.424
    1GLY     O1 2355   2.829   3.078   2.407
    1GLY     H1 2356   2.946   3.257   2.798
    1GLY     H2 2357   3.055   3.231   2.669
    1GLY    HA1 2358   2.878   3.065   2.664
    1GLY    HA2 2359   2.760   3.198   2.647
    1GLY     H3 2360   2.941   3.359   2.661
    1GLY      N 2361   2.480   3.427   2.510
    1GLY     CA 2362   2.608   3.393   2.441
    1GLY      C 2363   2.595   3.409   2.289
    1GLY      O 2364   2.478   3.417   2.241
    1GLY     O1 2365   2.702   3.407   2.224
    1GLY     H1 2366   2.489   3.419   2.615
    1GLY     H2 2367   2.456   3.527   2.486
    1GLY    HA1 2368   2.688   3.456   2.481
    1GLY    HA2 2369   2.632   3.287   2.464
    1GLY     H3 2370   2.403   3.364   2.478
    1GLY      N 2371   3.279   2.931   2.876
    1GLY     CA 2372   3.244   3.058   2.807
    1GLY      C 2373   3.237   3.039   2.655
    1GLY      O 2374   3.289   2.934   2.607
    1GLY     O1 2375   3.184   3.133   2.590
    1GLY     H1 2376   3.281   2.942   2.981
    1GLY     H2 2377   3.205   2.860   2.852
    1GLY    HA1 2378   3.149   3.096   2.847
    1GLY    HA2 2379   3.323   3.132   2.830
    1GLY     H3 2380   3.372   2.895   2.844
    1GLY      N 2381   2.957   3.260   3.242
    1GLY     CA 2382   2.863   3.167   3.173
    1GLY      C 2383   2.884   3.170   3.021
    1GLY      O 2384   2.949   3.267   2.973
    1GLY     O1 2385   2.829   3.078   2.956
    1GLY     H1 2386   2.946   3.257   3.347
    1GLY     H2 2387   3.055   3.231   3.218
    1GLY    HA1 2388   2.878   3.065   3.213
    1GLY    HA2 2389   2.760   3.198   3.196
    1GLY     H3 2390   2.941   3.359   3.210
    1GLY      N 2391   2.480   3.427   3.059
    1GLY     CA 2392   2.608   3.393   2.990
    1GLY      C 2393   2.595   3.409   2.838
    1GLY      O 2394   2.478   3.417   2.790
    1GLY     O1 2395   2.702   3.407   2.773
    1GLY     H1 2396   2.489   3.419   3.164
    1GLY     H2 2397   2.456   3.527   3.035
    1GLY    HA1 2398   2.688   3.456   3.030
    1GLY    HA2 2399   2.632   3.287   3.013
    1GLY     H3 2400   2.403   3.364   3.027
    1GLY      N 2401   3.279   2.931   3.425
    1GLY     CA 2402   3.244   3.058   3.356
    1GLY      C 2403   3.237   3.039   3.204
    1GLY      O 2404   3.289   2.934   3.156
    1GLY     O1 2405   3.184   3.133   3.139
    1GLY     H1 2406   3.281   2.942   3.530
    1GLY     H2 2407   3.205   2.860   3.401
    1GLY    HA1 2408   3.149   3.096   3.396
    1GLY    HA2 2409   3.323   3.132   3.379
    1GLY     H3 2410   3.372   2.895   3.393
    1GLY      N 2411   2.957   3.260   3.791
    1GLY     CA 2412   2.863   3.167   3.722
    1GLY      C 2413   2.884   3.170   3.570
    1GLY      O 2414   2.949   3.267   3.522
    1GLY     O1 2415   2.829   3.078   3.505
    1GLY     H1 2416   2.946   3.257   3.896
    1GLY     H2 2417   3.055   3.231   3.767
    1GLY    HA1 2418   2.878   3.065   3.762
    1GLY    HA2 2419   2.760   3.198   3.745
    1GLY     H3 2420   2.941   3.359   3.759
    1GLY      N 2421   2.480   3.427   3.608
    1GLY     CA 2422   2.608   3.393   3.539
    1GLY      C 2423   2.595   3.409   3.387
    1GLY      O 2424   2.478   3.417   3.339
    1GLY     O1 2425   2.702   3.407   3.322
    1GLY     H1 2426   2.489   3.419   3.713
    1GLY     H2 2427   2.456   3.527   3.584
    1GLY    HA1 2428   2.688   3.456   3.579
    1GLY    HA2 2429   2.632   3.287   3.562
    1GLY     H3 2430   2.403   3.364   3.576
    1GLY      N 2431   3.279   2.931   3.974
    1GLY     CA 2432   3.244   3.058   3.905
    1GLY      C 2433   3.237   3.039   3.754
    1GLY      O 2434   3.289   2.934   3.705
    1GLY     O1 2435   3.184   3.133   3.688
    1GLY     H1 2436   3.281   2.942   4.079
    1GLY     H2 2437   3.205   2.860   3.950
    1GLY    HA1 2438   3.149   3.096   3.945
    1GLY    HA2 2439   3.323   3.132   3.928
    1GLY     H3 2440   3.372   2.895   3.942
    1GLY      N 2441   2.604   3.871   1.594
    1GLY     CA 2442   2.511   3.777   1.526
    1GLY      C 2443   2.531   3.780   1.374
    1GLY      O 2444   2.597   3.878   1.325
    1GLY     O1 2445   2.477   3.688   1.308
    1GLY     H1 2446   2.594   3.867   1.699
    1GLY     H2 2447   2.703   3.842   1.570
    1GLY    HA1 2448   2.526   3.676   1.566
    1GLY    HA2 2449   2.408   3.809   1.548
    1GLY     H3 2450   2.589   3.969   1.563
    1GLY      N 2451   2.926   3.541   1.778
    1GLY     CA 2452   2.892   3.669   1.709
    1GLY      C 2453   2.885   3.649   1.557
    1GLY      O 2454   2.936   3.544   1.508
    1GLY     O1 2455   2.832   3.743   1.491
    1GLY     H1 2456   2.929   3.552   1.882
    1GLY     H2 2457   2.852   3.470   1.753
    1GLY    HA1 2458   2.797   3.707   1.749
    1GLY    HA2 2459   2.971   3.742   1.731
    1GLY     H3 2460   3.019   3.505   1.746
    1GLY      N 2461   2.604   3.871   2.144
    1GLY     CA 2462   2.511   3.777   2.075
    1GLY      C 2463   2.531   3.780   1.923
    1GLY      O 2464   2.597   3.878   1.875
    1GLY     O1 2465   2.477   3.688   1.857
    1GLY     H1 2466   2.594   3.867   2.249
    1GLY     H2 2467   2.703   3.842   2.120
    1GLY    HA1 2468   2.526   3.676   2.115
    1GLY    HA2 2469   2.408   3.809   2.097
    1GLY     H3 2470   2.589   3.969   2.112
    1GLY      N 2471   2.926   3.541   2.327
    1GLY     CA 2472   2.892   3.669   2.258
    1GLY      C 2473   2.885   3.649   2.106
    1GLY      O 2474   2.936   3.544   2.058
    1GLY     O1 2475   2.832   3.743   2.040
    1GLY     H1 2476   2.929   3.552   2.432
    1GLY     H2 2477   2.852   3.470   2.303
    1GLY    HA1 2478   2.797   3.707   2.298
    1GLY    HA2 2479   2.971   3.742   2.280
    1GLY     H3 2480   3.019   3.505   2.295
    1GLY      N 2481   2.604   3.871   2.693
    1GLY     CA 2482   2.511   3.777   2.624
    1GLY      C 2483   2.531   3.780   2.472
    1GLY      O 2484   2.597   3.878   2.424
    1GLY     O1 2485   2.477   3.688   2.407
    1GLY     H1 2486   2.594   3.867   2.798
    1GLY     H2 2487   2.703   3.842   2.669
    1GLY    HA1 2488   2.526   3.676   2.664
    1GLY    HA2 2489   2.408   3.809   2.647
    1GLY     H3 2490   2.589   3.969   2.661
    1GLY      N 2491   2.926   3.541   2.876
    1GLY     CA 2492   2.892   3.669   2.807
    1GLY      C 2493   2.885   3.649   2.655
    1GLY      O 2494   2.936   3.544   2.607
    1GLY     O1 2495   2.832   3.743   2.590
    1GLY     H1 2496   2.929   3.552   2.981
    1GLY     H2 2497   2.852   3.470   2.852
    1GLY    HA1 2498   2.797   3.707   2.847
    1GLY    HA2 2499   2.971   3.742   2.830
    1GLY     H3 2500   3.019   3.505   2.844
    1GLY      N 2501   2.604   3.871   3.242
    1GLY     CA 2502   2.511   3.777   3.173
    1GLY      C 2503   2.531   3.780   3.021
    1GLY      O 2504   2.597   3.878   2.973
    1GLY     O1 2505   2.477   3.688   2.956
    1GLY     H1 2506   2.594   3.867   3.347
    1GLY     H2 2507   2.703   3.842   3.218
    1GLY    HA1 2508   2.526   3.676   3.213
    1GLY    HA2 2509   2.408   3.809   3.196
    1GLY     H3 2510   2.589   3.969   3.210
    1GLY      N 2511   2.926   3.541   3.425
    1GLY     CA 2512   2.892   3.669   3.356
    1GLY      C 2513   2.885   3.649   3.204
    1GLY      O 2514   2.936   3.544   3.156
    1GLY     O1 2515   2.832   3.743   3.139
    1GLY     H1 2516   2.929   3.552   3.530
    1GLY     H2 2517   2.852   3.470   3.401
    1GLY    HA1 2518   2.797   3.707   3.396
    1GLY    HA2 2519   2.971   3.742   3.379
    1GLY     H3 2520   3.019   3.505   3.393
    1GLY      N 2521   2.604   3.871   3.791
    1GLY     CA 2522   2.511   3.777   3.722
    1GLY      C 2523   2.531   3.780   3.570
    1GLY      O 2524   2.597   3.878   3.522
    1GLY     O1 2525   2.477   3.688   3.505
    1GLY     H1 2526   2.594   3.867   3.896
    1GLY     H2 2527   2.703   3.842   3.767
    1GLY    HA1 2528   2.526   3.676   3.762
    1GLY    HA2 2529   2.408   3.809   3.745
    1GLY     H3 2530   2.589   3.969   3.759
    1GLY      N 2531   3.889   2.206   1.961
    1GLY     CA 2532   4.017   2.172   1.892
    1GLY      C 2533   4.004   2.188   1.740
    1GLY      O 2534   3.887   2.197   1.691
    1GLY     O1 2535   4.111   2.187   1.674
    1GLY     H1 2536   3.898   2.199   2.065
    1GLY     H2 2537   3.865   2.306   1.936
    1GLY    HA1 2538   4.097   2.236   1.932
    1GLY    HA2 2539   4.041   2.067   1.914
    1GLY     H3 2540   3.812   2.144   1.929
    1GLY      N 2541   3.889   2.206   2.510
    1GLY     CA 2542   4.017   2.172   2.441
    1GLY      C 2543   4.004   2.188   2.289
    1GLY      O 2544   3.887   2.197   2.241
    1GLY     O1 2545   4.111   2.187   2.224
    1GLY     H1 2546   3.898   2.199   2.615
    1GLY     H2 2547   3.865   2.306   2.486
    1GLY    HA1 2548   4.097   2.236   2.481
    1GLY    HA2 2549   4.041   2.067   2.464
    1GLY     H3 2550   3.812   2.144   2.478
    1GLY      N 2551   3.889   2.206   3.059
    1GLY     CA 2552   4.017   2.172   2.990
    1GLY      C 2553   4.004   2.188   2.838
    1GLY      O 2554   3.887   2.197   2.790
    1GLY     O1 2555   4.111   2.187   2.773
    1GLY     H1 2556   3.898   2.199   3.164
    1GLY     H2 2557   3.865   2.306   3.035
    1GLY    HA1 2558   4.097   2.236   3.030
    1GLY    HA2 2559   4.041   2.067   3.013
    1GLY     H3 2560   3.812   2.144   3.027
    1GLY      N 2561   4.014   2.650   1.594
    1GLY     CA 2562   3.920   2.557   1.526
    1GLY      C 2563   3.940   2.560   1.374
    1GLY      O 2564   4.006   2.657   1.325
    1GLY     O1 2565   3.886   2.467   1.308
    1GLY     H1 2566   4.003   2.647   1.699
    1GLY     H2 2567   4.112   2.621   1.570
    1GLY    HA1 2568   3.935   2.455   1.566
    1GLY    HA2 2569   3.817   2.588   1.548
    1GLY     H3 2570   3.998   2.749   1.563
    1GLY      N 2571   3.537   2.817   1.411
    1GLY     CA 2572   3.665   2.783   1.343
    1GLY      C 2573   3.652   2.798   1.191
    1GLY      O 2574   3.534   2.807   1.142
    1GLY     O1 2575   3.759   2.797   1.125
    1GLY     H1 2576   3.545   2.809   1.516
    1GLY     H2 2577   3.513   2.916   1.387
    1GLY    HA1 2578   3.745   2.846   1.383
    1GLY    HA2 2579   3.689   2.677   1.365
    1GLY     H3 2580   3.459   2.754   1.380
    1GLY      N 2581   4.014   2.650   2.144
    1GLY     CA 2582   3.920   2.557   2.075
    1GLY      C 2583   3.940   2.560   1.923
    1GLY      O 2584   4.006   2.657   1.875
    1GLY     O1 2585   3.886   2.467   1.857
    1GLY     H1 2586   4.003   2.647   2.249
    1GLY     H2 2587   4.112   2.621   2.120
    1GLY    HA1 2588   3.935   2.455   2.115
    1GLY    HA2 2589   3.817   2.588   2.097
    1GLY     H3 2590   3.998   2.749   2.112
    1GLY      N 2591   3.537   2.817   1.961
    1GLY     CA 2592   3.665   2.783   1.892
    1GLY      C 2593   3.652   2.798   1.740
    1GLY      O 2594   3.534   2.807   1.691
    1GLY     O1 2595   3.759   2.797   1.674
    1GLY     H1 2596   3.545   2.809   2.065
    1GLY     H2 2597   3.513   2.916   1.936
    1GLY    HA1 2598   3.745   2.846   1.932
    1GLY    HA2 2599   3.689   2.677   1.914
    1GLY     H3 2600   3.459   2.754   1.929
    1GLY      N 2601   4.014   2.650   2.693
    1GLY     CA 2602   3.920   2.557   2.624
    1GLY      C 2603   3.940   2.560   2.472
    1GLY      O 2604   4.006   2.657   2.424
    1GLY     O1 2605   3.886   2.467   2.407
    1GLY     H1 2606   4.003   2.647   2.798
    1GLY     H2 2607   4.112   2.621   2.669
    1GLY    HA1 2608   3.935   2.455   2.664
    1GLY    HA2 2609   3.817   2.588   2.647
    1GLY     H3 2610   3.998   2.749   2.661
    1GLY      N 2611   3.537   2.817   2.510
    1GLY     CA 2612   3.665   2.783   2.441
    1GLY      C 2613   3.652   2.798   2.289
    1GLY      O 2614   3.534   2.807   2.241
    1GLY     O1 2615   3.759   2.797   2.224
    1GLY     H1 2616   3.545   2.809   2.615
    1GLY     H2 2617   3.513   2.916   2.486
    1GLY    HA1 2618   3.745   2.846   2.481
    1GLY    HA2 2619   3.689   2.677   2.464
    1GLY     H3 2620   3.459   2.754   2.478
    1GLY      N 2621   4.014   2.650   3.242
    1GLY     CA 2622   3.920   2.557   3.173
    1GLY      C 2623   3.940   2.560   3.021
    1GLY      O 2624   4.006   2.657   2.973
    1GLY     O1 2625   3.886   2.467   2.956
    1GLY     H1 2626   4.003   2.647   3.347
    1GLY     H2 2627   4.112   2.621   3.218
    1GLY    HA1 2628   3.935   2.455   3.213
    1GLY    HA2 2629   3.817   2.588   3.196
    1GLY     H3 2630   3.998   2.749   3.210
    1GLY      N 2631   3.537   2.817   3.059
    1GLY     CA 2632   3.665   2.783   2.990
    1GLY      C 2633   3.652   2.798   2.838
    1GLY      O 2634   3.534   2.807   2.790
    1GLY     O1 2635   3.759   2.797   2.773
    1GLY     H1 2636   3.545   2.809   3.164
    1GLY     H2 2637   3.513   2.916   3.035
    1GLY    HA1 2638   3.745   2.846   3.030
    1GLY    HA2 2639   3.689   2.677   3.013
    1GLY     H3 2640   3.459   2.754   3.027
    1GLY      N 2641   3.537   2.817   3.608
    1GLY     CA 2642   3.665   2.783   3.539
    1GLY      C 2643   3.652   2.798   3.387
    1GLY      O 2644   3.534   2.807   3.339
    1GLY     O1 2645   3.759   2.797   3.322
    1GLY     H1 2646   3.545   2.809   3.713
    1GLY     H2 2647   3.513   2.916   3.584
    1GLY    HA1 2648   3.745   2.846   3.579
    1GLY    HA2 2649   3.689   2.677   3.562
    1GLY     H3 2650   3.459   2.754   3.576
    1GLY      N 2651   3.661   3.260   1.594
    1GLY     CA 2652   3.568   3.167   1.526
    1GLY      C 2653   3.588   3.170   1.374
    1GLY      O 2654   3.654   3.267   1.325
    1GLY     O1 2655   3.533   3.078   1.308
    1GLY     H1 2656   3.650   3.257   1.699
    1GLY     H2 2657   3.760   3.231   1.570
    1GLY    HA1 2658   3.583   3.065   1.566
    1GLY    HA2 2659   3.465   3.198   1.548
    1GLY     H3 2660   3.646   3.359   1.563
    1GLY      N 2661   3.185   3.427   1.411
    1GLY     CA 2662   3.312   3.393   1.343
    1GLY      C 2663   3.299   3.409   1.191
    1GLY      O 2664   3.182   3.417   1.142
    1GLY     O1 2665   3.407   3.407   1.125
    1GLY     H1 2666   3.193   3.419   1.516
    1GLY     H2 2667   3.160   3.527   1.387
    1GLY    HA1 2668   3.393   3.456   1.383
    1GLY    HA2 2669   3.337   3.287   1.365
    1GLY     H3 2670   3.107   3.364   1.380
    1GLY      N 2671   3.983   2.931   1.778
    1GLY     CA 2672   3.949   3.058   1.709
    1GLY      C 2673   3.942   3.039   1.557
    1GLY      O 2674   3.993   2.934   1.508
    1GLY     O1 2675   3.889   3.133   1.491
    1GLY     H1 2676   3.986   2.942   1.882
    1GLY     H2 2677   3.909   2.860   1.753
    1GLY    HA1 2678   3.854   3.096   1.749
    1GLY    HA2 2679   4.028   3.132   1.731
    1GLY     H3 2680   4.076   2.895   1.746
    1GLY      N 2681   3.661   3.260   2.144
    1GLY     CA 2682   3.568   3.167   2.075
    1GLY      C 2683   3.588   3.170   1.923
    1GLY      O 2684   3.654   3.267   1.875
    1GLY     O1 2685   3.533   3.078   1.857
    1GLY     H1 2686   3.650   3.257   2.249
    1GLY     H2 2687   3.760   3.231   2.120
    1GLY    HA1 2688   3.583   3.065   2.115
    1GLY    HA2 2689   3.465   3.198   2.097
    1GLY     H3 2690   3.646   3.359   2.112
    1GLY      N 2691   3.185   3.427   1.961
    1GLY     CA 2692   3.312   3.393   1.892
    1GLY      C 2693   3.299   3.409   1.740
    1GLY      O 2694   3.182   3.417   1.691
    1GLY     O1 2695   3.407   3.407   1.674
    1GLY     H1 2696   3.193   3.419   2.065
    1GLY     H2 2697   3.160   3.527   1.936
    1GLY    HA1 2698   3.393   3.456   1.932
    1GLY    HA2 2699   3.337   3.287   1.914
    1GLY     H3 2700   3.107   3.364   1.929
    1GLY      N 2701   3.983   2.931   2.327
    1GLY     CA 2702   3.949   3.058   2.258
    1GLY      C 2703   3.942   3.039   2.106
    1GLY      O 2704   3.993   2.934   2.058
    1GLY     O1 2705   3.889   3.133   2.040
    1GLY     H1 2706   3.986   2.942   2.432
    1GLY     H2 2707   3.909   2.860   2.303
    1GLY    HA1 2708   3.854   3.096   2.298
    1GLY    HA2 2709   4.028   3.132   2.280
    1GLY     H3 2710   4.076   2.895   2.295
    1GLY      N 2711   3.661   3.260   2.693
    1GLY     CA 2712   3.568   3.167   2.624
    1GLY      C 2713   3.588   3.170   2.472
    1GLY      O 2714   3.654   3.267   2.424
    1GLY     O1 2715   3.533   3.078   2.407
    1GLY     H1 2716   3.650   3.257   2.798
    1GLY     H2 2717   3.760   3.231   2.669
    1GLY    HA1 2718   3.583   3.065   2.664
    1GLY    HA2 2719   3.465   3.198   2.647
    1GLY     H3 2720   3.646   3.359   2.661
    1GLY      N 2721   3.185   3.427   2.510
    1GLY     CA 2722   3.312   3.393   2.441
    1GLY      C 2723   3.299   3.409   2.289
    1GLY      O 2724   3.182   3.417   2.241
    1GLY     O1 2725   3.407   3.407   2.224
    1GLY     H1 2726   3.193   3.419   2.615
    1GLY     H2 2727   3.160   3.527   2.486
    1GLY    HA1 2728   3.393   3.456   2.481
    1GLY    HA2 2729   3.337   3.287   2.464
    1GLY     H3 2730   3.107   3.364   2.478
    1GLY      N 2731   3.983   2.931   2.876
    1GLY     CA 2732   3.949   3.058   2.807
    1GLY      C 2733   3.942   3.039   2.655
    1GLY      O 2734   3.993   2.934   2.607
    1GLY     O1 2735   3.889   3.133   2.590
    1GLY     H1 2736   3.986   2.942   2.981
    1GLY     H2 2737   3.909   2.860   2.852
    1GLY    HA1 2738   3.854   3.096   2.847
    1GLY    HA2 2739   4.028   3.132   2.830
    1GLY     H3 2740   4.076   2.895   2.844
    1GLY      N 2741   3.661   3.260   3.242
    1GLY     CA 2742   3.568   3.167   3.173
    1GLY      C 2743   3.588   3.170   3.021
    1GLY      O 2744   3.654   3.267   2.973
    1GLY     O1 2745   3.533   3.078   2.956
    1GLY     H1 2746   3.650   3.257   3.347
    1GLY     H2 2747   3.760   3.231   3.218
    1GLY    HA1 2748   3.583   3.065   3.213
    1GLY    HA2 2749   3.465   3.198   3.196
    1GLY     H3 2750   3.646   3.359   3.210
    1GLY      N 2751   3.185   3.427   3.059
    1GLY     CA 2752   3.312   3.393   2.990
    1GLY      C 2753   3.299   3.409   2.838
    1GLY      O 2754   3.182   3.417   2.790
    1GLY     O1 2755   3.407   3.407   2.773
    1GLY     H1 2756   3.193   3.419   3.164
    1GLY     H2 2757   3.160   3.527   3.035
    1GLY    HA1 2758   3.393   3.456   3.030
    1GLY    HA2 2759   3.337   3.287   3.013
    1GLY     H3 2760   3.107   3.364   3.027
    1GLY      N 2761   3.983   2.931   3.425
    1GLY     CA 2762   3.949   3.058   3.356
    1GLY      C 2763   3.942   3.039   3.204
    1GLY      O 2764   3.993   2.934   3.156
    1GLY     O1 2765   3.889   3.133   3.139
    1GLY     H1 2766   3.986   2.942   3.530
    1GLY     H2 2767   3.909   2.860   3.401
    1GLY    HA1 2768   3.854   3.096   3.396
    1GLY    HA2 2769   4.028   3.132   3.379
    1GLY     H3 2770   4.076   2.895   3.393
    1GLY      N 2771   3.661   3.260   3.791
    1GLY     CA 2772   3.568   3.167   3.722
    1GLY      C 2773   3.588   3.170   3.570
    1GLY      O 2774   3.654   3.267   3.522
    1GLY     O1 2775   3.533   3.078   3.505
    1GLY     H1 2776   3.650   3.257   3.896
    1GLY     H2 2777   3.760   3.231   3.767
    1GLY    HA1 2778   3.583   3.065   3.762
    1GLY    HA2 2779   3.465   3.198   3.745
    1GLY     H3 2780   3.646   3.359   3.759
    1GLY      N 2781   3.185   3.427   3.608
    1GLY     CA 2782   3.312   3.393   3.539
    1GLY      C 2783   3.299   3.409   3.387
    1GLY      O 2784   3.182   3.417   3.339
    1GLY     O1 2785   3.407   3.407   3.322
    1GLY     H1 2786   3.193   3.419   3.713
    1GLY     H2 2787   3.160   3.527   3.584
    1GLY    HA1 2788   3.393   3.456   3.579
    1GLY    HA2 2789   3.337   3.287   3.562
    1GLY     H3 2790   3.107   3.364   3.576
    1GLY      N 2791   3.309   3.871   1.594
    1GLY     CA 2792   3.216   3.777   1.526
    1GLY      C 2793   3.236   3.780   1.374
    1GLY      O 2794   3.302   3.878   1.325
    1GLY     O1 2795   3.181   3.688   1.308
    1GLY     H1 2796   3.298   3.867   1.699
    1GLY     H2 2797   3.407   3.842   1.570
    1GLY    HA1 2798   3.230   3.676   1.566
    1GLY    HA2 2799   3.112   3.809   1.548
    1GLY     H3 2800   3.293   3.969   1.563
    1GLY      N 2801   3.631   3.541   1.778
    1GLY     CA 2802   3.597   3.669   1.709
    1GLY      C 2803   3.590   3.649   1.557
    1GLY      O 2804   3.641   3.544   1.508
    1GLY     O1 2805   3.537   3.743   1.491
    1GLY     H1 2806   3.633   3.552   1.882
    1GLY     H2 2807   3.557   3.470   1.753
    1GLY    HA1 2808   3.501   3.707   1.749
    1GLY    HA2 2809   3.676   3.742   1.731
    1GLY     H3 2810   3.724   3.505   1.746
    1GLY      N 2811   3.309   3.871   2.144
    1GLY     CA 2812   3.216   3.777   2.075
    1GLY      C 2813   3.236   3.780   1.923
    1GLY      O 2814   3.302   3.878   1.875
    1GLY     O1 2815   3.181   3.688   1.857
    1GLY     H1 2816   3.298   3.867   2.249
    1GLY     H2 2817   3.407   3.842   2.120
    1GLY    HA1 2818   3.230   3.676   2.115
    1GLY    HA2 2819   3.112   3.809   2.097
    1GLY     H3 2820   3.293   3.969   2.112
    1GLY      N 2821   3.631   3.541   2.327
    1GLY     CA 2822   3.597   3.669   2.258
    1GLY      C 2823   3.590   3.649   2.106
    1GLY      O 2824   3.641   3.544   2.058
    1GLY     O1 2825   3.537   3.743   2.040
    1GLY     H1 2826   3.633   3.552   2.432
    1GLY     H2 2827   3.557   3.470   2.303
    1GLY    HA1 2828   3.501   3.707   2.298
    1GLY    HA2 2829   3.676   3.742   2.280
    1GLY     H3 2830   3.724   3.505   2.295
    1GLY      N 2831   3.309   3.871   2.693
    1GLY     CA 2832   3.216   3.777   2.624
    1GLY      C 2833   3.236   3.780   2.472
    1GLY      O 2834   3.302   3.878   2.424
    1GLY     O1 2835   3.181   3.688   2.407
    1GLY     H1 2836   3.298   3.867   2.798
    1GLY     H2 2837   3.407   3.842   2.669
    1GLY    HA1 2838   3.230   3.676   2.664
    1GLY    HA2 2839   3.112   3.809   2.647
    1GLY     H3 2840   3.293   3.969   2.661
    1GLY      N 2841   3.631   3.541   2.876
    1GLY     CA 2842   3.597   3.669   2.807
    1GLY      C 2843   3.590   3.649   2.655
    1GLY      O 2844   3.641   3.544   2.607
    1GLY     O1 2845   3.537   3.743   2.590
    1GLY     H1 2846   3.633   3.552   2.981
    1GLY     H2 2847   3.557   3.470   2.852
    1GLY    HA1 2848   3.501   3.707   2.847
    1GLY    HA2 2849   3.676   3.742   2.830
    1GLY     H3 2850   3.724   3.505   2.844
    1GLY      N 2851   3.309   3.871   3.242
    1GLY     CA 2852   3.216   3.777   3.173
    1GLY      C 2853   3.236   3.780   3.021
    1GLY      O 2854   3.302   3.878   2.973
    1GLY     O1 2855   3.181   3.688   2.956
    1GLY     H1 2856   3.298   3.867   3.347
    1GLY     H2 2857   3.407   3.842   3.218
    1GLY    HA1 2858   3.230   3.676   3.213
    1GLY    HA2 2859   3.112   3.809   3.196
    1GLY     H3 2860   3.293   3.969   3.210
    1GLY      N 2861   3.889   3.427   2.510
    1GLY     CA 2862   4.017   3.393   2.441
    1GLY      C 2863   4.004   3.409   2.289
    1GLY      O 2864   3.887   3.417   2.241
    1GLY     O1 2865   4.111   3.407   2.224
    1GLY     H1 2866   3.898   3.419   2.615
    1GLY     H2 2867   3.865   3.527   2.486
    1GLY    HA1 2868   4.097   3.456   2.481
    1GLY    HA2 2869   4.041   3.287   2.464
    1GLY     H3 2870   3.812   3.364   2.478
    2GLY      N 2871   1.207   1.854   4.913
    2GLY     CA 2872   1.278   1.986   4.924
    2GLY      C 2873   1.425   1.979   4.893
    2GLY      O 2874   1.468   1.886   4.828
    2GLY     O1 2875   1.486   2.066   4.957
    2GLY     H1 2876   1.108   1.867   4.938
    2GLY     H2 2877   1.200   1.831   4.813
    2GLY    HA1 2878   1.217   2.049   4.859
    2GLY    HA2 2879   1.267   2.019   5.027
    2GLY     H3 2880   1.243   1.773   4.964
    3GLY      N 2881   4.424   1.096   0.429
    3GLY     CA 2882   4.511   1.176   0.335
    3GLY      C 2883   4.529   1.319   0.374
    3GLY      O 2884   4.509   1.353   0.490
    3GLY     O1 2885   4.546   1.389   0.275
    3GLY     H1 2886   4.414   1.000   0.393
    3GLY     H2 2887   4.478   1.081   0.516
    3GLY    HA1 2888   4.600   1.113   0.331
    3GLY    HA2 2889   4.462   1.174   0.238
    3GLY     H3 2890   4.330   1.131   0.453
    4GLY      N 2891   3.029   0.627   4.694
    4GLY     CA 2892   3.171   0.609   4.648
    4GLY      C 2893   3.204   0.677   4.519
    4GLY      O 2894   3.134   0.770   4.481
    4GLY     O1 2895   3.293   0.616   4.459
    4GLY     H1 2896   3.013   0.574   4.781
    4GLY     H2 2897   3.020   0.725   4.726
    4GLY    HA1 2898   3.226   0.639   4.737
    4GLY    HA2 2899   3.185   0.502   4.633
    4GLY     H3 2900   2.952   0.605   4.629
    5GLY      N 2901   0.312   0.399   3.180
    5GLY     CA 2902   0.383   0.526   3.143
    5GLY      C 2903   0.508   0.506   3.064
    5GLY      O 2904   0.525   0.402   3.003
    5GLY     O1 2905   0.588   0.597   3.086
    5GLY     H1 2906   0.229   0.421   3.237
    5GLY     H2 2907   0.269   0.361   3.094
    5GLY    HA1 2908   0.302   0.582   3.096
    5GLY    HA2 2909   0.410   0.575   3.237
    5GLY     H3 2910   0.364   0.324   3.228
    6GLY      N 2911   0.956   3.928   2.035
    6GLY     CA 2912   0.840   3.937   1.939
    6GLY      C 2913   0.751   4.055   1.961
    6GLY      O 2914   0.793   4.151   2.022
    6GLY     O1 2915   0.636   4.029   1.926
    6GLY     H1 2916   1.011   3.843   2.015
    6GLY     H2 2917   1.023   4.003   2.009
    6GLY    HA1 2918   0.892   3.930   1.843
    6GLY    HA2 2919   0.781   3.847   1.954
    6GLY     H3 2920   0.938   3.932   2.136
    7GLY      N 2921   4.509   3.680   2.299
    7GLY     CA 2922   4.461   3.718   2.161
    7GLY      C 2923   4.435   3.863   2.142
    7GLY      O 2924   4.486   3.944   2.218
    7GLY     O1 2925   4.346   3.881   2.058
    7GLY     H1 2926   4.522   3.578   2.304
    7GLY     H2 2927   4.606   3.715   2.308
    7GLY    HA1 2928   4.538   3.672   2.099
    7GLY    HA2 2929   4.367   3.665   2.145
    7GLY     H3 2930   4.455   3.710   2.381
    8GLY      N 2931   1.049   3.223   0.140
    8GLY     CA 2932   1.057   3.306   0.015
    8GLY      C 2933   0.933   3.307  -0.069
    8GLY      O 2934   0.827   3.276  -0.018
    8GLY     O1 2935   0.961   3.323  -0.188
    8GLY     H1 2936   1.139   3.225   0.189
    8GLY     H2 2937   0.986   3.272   0.205
    8GLY    HA1 2938   1.091   3.402   0.056
    8GLY    HA2 2939   1.138   3.264  -0.046
    8GLY     H3 2940   1.019   3.124   0.132
    9GLY      N 2941   1.356   1.328   4.917
    9GLY     CA 2942   1.319   1.389   5.050
    9GLY      C 2943   1.287   1.535   5.044
    9GLY      O 2944   1.255   1.585   4.937
    9GLY     O1 2945   1.315   1.590   5.151
    9GLY     H1 2946   1.379   1.229   4.931
    9GLY     H2 2947   1.269   1.322   4.861
    9GLY    HA1 2948   1.240   1.322   5.083
    9GLY    HA2 2949   1.405   1.377   5.115
    9GLY     H3 2950   1.430   1.371   4.861
   10GLY      N 2951   2.351   2.747   4.906
   10GLY     CA 2952   2.264   2.864   4.946
   10GLY      C 2953   2.222   2.951   4.832
   10GLY      O 2954   2.225   2.906   4.718
   10GLY     O1 2955   2.206   3.067   4.869
   10GLY     H1 2956   2.378   2.694   4.990
   10GLY     H2 2957   2.290   2.679   4.857
   10GLY    HA1 2958   2.185   2.814   5.002
   10GLY    HA2 2959   2.323   2.925   5.014
   10GLY     H3 2960   2.435   2.763   4.850
   11GLY      N 2961   1.023   1.235   1.300
   11GLY     CA 2962   0.968   1.374   1.321
   11GLY      C 2963   0.897   1.430   1.202
   11GLY      O 2964   0.856   1.355   1.115
   11GLY     O1 2965   0.907   1.553   1.200
   11GLY     H1 2966   1.073   1.205   1.385
   11GLY     H2 2967   0.943   1.170   1.298
   11GLY    HA1 2968   0.910   1.360   1.412
   11GLY    HA2 2969   1.053   1.438   1.343
   11GLY     H3 2970   1.084   1.217   1.219
   12GLY      N 2971   4.386   1.424   2.004
   12GLY     CA 2972   4.348   1.280   2.029
   12GLY      C 2973   4.271   1.216   1.918
   12GLY      O 2974   4.276   1.264   1.806
   12GLY     O1 2975   4.196   1.129   1.962
   12GLY     H1 2976   4.435   1.462   2.086
   12GLY     H2 2977   4.460   1.424   1.932
   12GLY    HA1 2978   4.445   1.237   2.055
   12GLY    HA2 2979   4.285   1.280   2.118
   12GLY     H3 2980   4.313   1.491   1.977
   13GLY      N 2981   2.963   1.525   4.506
   13GLY     CA 2982   2.958   1.675   4.507
   13GLY      C 2983   2.954   1.736   4.644
   13GLY      O 2984   2.991   1.670   4.740
   13GLY     O1 2985   2.894   1.844   4.641
   13GLY     H1 2986   2.962   1.491   4.409
   13GLY     H2 2987   3.056   1.496   4.538
   13GLY    HA1 2988   3.044   1.699   4.444
   13GLY    HA2 2989   2.867   1.704   4.455
   13GLY     H3 2990   2.891   1.472   4.558
   14GLY      N 2991   2.718   3.579   4.256
   14GLY     CA 2992   2.623   3.480   4.318
   14GLY      C 2993   2.684   3.347   4.348
   14GLY      O 2994   2.805   3.337   4.358
   14GLY     O1 2995   2.599   3.258   4.342
   14GLY     H1 2996   2.668   3.666   4.235
   14GLY     H2 2997   2.784   3.608   4.329
   14GLY    HA1 2998   2.585   3.538   4.403
   14GLY    HA2 2999   2.543   3.464   4.247
   14GLY     H3 3000   2.771   3.552   4.171
   15GLY      N 3001   1.250   0.857   4.487
   15GLY     CA 3002   1.142   0.951   4.533
   15GLY      C 3003   1.156   0.998   4.673
   15GLY      O 3004   1.265   0.993   4.728
   15GLY     O1 3005   1.046   1.023   4.723
   15GLY     H1 3006   1.231   0.826   4.391
   15GLY     H2 3007   1.336   0.913   4.475
   15GLY    HA1 3008   1.144   1.026   4.454
   15GLY    HA2 3009   1.048   0.896   4.526
   15GLY     H3 3010   1.271   0.773   4.543
   16GLY      N 3011   3.007   4.337   1.643
   16GLY     CA 3012   3.004   4.227   1.746
   16GLY      C 3013   2.867   4.179   1.781
   16GLY      O 3014   2.775   4.199   1.704
   16GLY     O1 3015   2.865   4.137   1.898
   16GLY     H1 3016   3.104   4.367   1.627
   16GLY     H2 3017   2.982   4.294   1.552
   16GLY    HA1 3018   3.073   4.155   1.701
   16GLY    HA2 3019   3.049   4.268   1.836
   16GLY     H3 3020   2.949   4.421   1.658
   17GLY      N 3021   4.699   2.302   2.399
   17GLY     CA 3022   4.806   2.407   2.384
   17GLY      C 3023   4.891   2.426   2.505
   17GLY      O 3024   4.898   2.337   2.589
   17GLY     O1 3025   4.932   2.542   2.512
   17GLY     H1 3026   4.643   2.297   2.313
   17GLY     H2 3027   4.746   2.210   2.399
   17GLY    HA1 3028   4.855   2.374   2.293
   17GLY    HA2 3029   4.754   2.501   2.365
   17GLY     H3 3030   4.634   2.306   2.480
   18GLY      N 3031   4.533   3.495   4.520
   18GLY     CA 3032   4.418   3.505   4.616
   18GLY      C 3033   4.283   3.505   4.552
   18GLY      O 3034   4.270   3.461   4.439
   18GLY     O1 3035   4.202   3.569   4.620
   18GLY     H1 3036   4.622   3.498   4.572
   18GLY     H2 3037   4.534   3.398   4.483
   18GLY    HA1 3038   4.440   3.423   4.685
   18GLY    HA2 3039   4.429   3.599   4.669
   18GLY     H3 3040   4.539   3.561   4.441
   19GLY      N 3041   4.814   4.673   3.931
   19GLY     CA 3042   4.806   4.822   3.910
   19GLY      C 3043   4.667   4.875   3.896
   19GLY      O 3044   4.573   4.809   3.939
   19GLY     O1 3045   4.666   4.975   3.824
   19GLY     H1 3046   4.913   4.644   3.936
   19GLY     H2 3047   4.781   4.654   4.027
   19GLY    HA1 3048   4.866   4.859   3.993
   19GLY    HA2 3049   4.859   4.843   3.817
   19GLY     H3 3050   4.766   4.610   3.866
   20GLY      N 3051   4.894   3.452   3.043
   20GLY     CA 3052   4.747   3.438   3.015
   20GLY      C 3053   4.658   3.496   3.120
   20GLY      O 3054   4.702   3.580   3.197
   20GLY     O1 3055   4.551   3.435   3.126
   20GLY     H1 3056   4.948   3.407   2.968
   20GLY     H2 3057   4.918   3.552   3.030
   20GLY    HA1 3058   4.740   3.480   2.915
   20GLY    HA2 3059   4.726   3.331   3.010
   20GLY     H3 3060   4.932   3.420   3.133
   21GLY      N 3061   0.537   2.093   2.082
   21GLY     CA 3062   0.498   2.078   1.937
   21GLY      C 3063   0.353   2.050   1.915
   21GLY      O 3064   0.272   2.077   2.003
   21GLY     O1 3065   0.336   1.984   1.812
   21GLY     H1 3066   0.638   2.109   2.089
   21GLY     H2 3067   0.499   2.183   2.115
   21GLY    HA1 3068   0.538   2.171   1.895
   21GLY    HA2 3069   0.554   1.994   1.898
   21GLY     H3 3070   0.512   2.018   2.149
   22SOL     OW 3071   0.230   0.628   0.113
   22SOL    HW1 3072   0.137   0.626   0.150
   22SOL    HW2 3073   0.231   0.589   0.021
   23SOL     OW 3074   0.225   0.275   0.996
   23SOL    HW1 3075   0.260   0.258   1.088
   23SOL    HW2 3076   0.137   0.230   0.984
   24SOL     OW 3077   0.019   0.368   0.647
   24SOL    HW1 3078  -0.063   0.411   0.686
   24SOL    HW2 3079  -0.009   0.295   0.584
   25SOL     OW 3080   0.569   1.275   1.165
   25SOL    HW1 3081   0.476   1.268   1.128
   25SOL    HW2 3082   0.580   1.364   1.209
   26SOL     OW 3083   1.555   1.511   0.703
   26SOL    HW1 3084   1.498   1.495   0.784
   26SOL    HW2 3085   1.496   1.521   0.623
   27SOL     OW 3086   1.135   0.703   0.717
   27SOL    HW1 3087   1.192   0.781   0.692
   27SOL    HW2 3088   1.075   0.729   0.793
   28SOL     OW 3089   1.755   0.607   0.231
   28SOL    HW1 3090   1.743   0.594   0.132
   28SOL    HW2 3091   1.725   0.526   0.280
   29SOL     OW 3092   0.768   1.144   1.023
   29SOL    HW1 3093   0.690   1.161   1.083
   29SOL    HW2 3094   0.802   1.231   0.987
   30SOL     OW 3095   0.850   0.798   1.823
   30SOL    HW1 3096   0.846   0.874   1.888
   30SOL    HW2 3097   0.872   0.834   1.732
   31SOL     OW 3098   0.685   1.012   0.665
   31SOL    HW1 3099   0.754   0.996   0.735
   31SOL    HW2 3100   0.612   1.069   0.703
   32SOL     OW 3101   0.686   1.161   1.803
   32SOL    HW1 3102   0.746   1.240   1.817
   32SOL    HW2 3103   0.600   1.192   1.762
   33SOL     OW 3104   0.335   1.435   1.061
   33SOL    HW1 3105   0.257   1.404   1.008
   33SOL    HW2 3106   0.393   1.493   1.004
   34SOL     OW 3107   0.438   0.392   1.499
   34SOL    HW1 3108   0.520   0.336   1.508
   34SOL    HW2 3109   0.357   0.334   1.503
   35SOL     OW 3110   1.603   0.447   0.737
   35SOL    HW1 3111   1.529   0.493   0.687
   35SOL    HW2 3112   1.654   0.515   0.790
   36SOL     OW 3113   0.231   1.713   0.483
   36SOL    HW1 3114   0.265   1.790   0.537
   36SOL    HW2 3115   0.275   1.713   0.393
   37SOL     OW 3116   1.127   1.341   1.690
   37SOL    HW1 3117   1.174   1.341   1.778
   37SOL    HW2 3118   1.079   1.254   1.679
   38SOL     OW 3119   0.230   1.434   0.538
   38SOL    HW1 3120   0.204   1.530   0.538
   38SOL    HW2 3121   0.159   1.380   0.583
   39SOL     OW 3122   0.240   1.091   0.886
   39SOL    HW1 3123   0.254   1.007   0.938
   39SOL    HW2 3124   0.185   1.155   0.941
   40SOL     OW 3125   0.620   1.786   1.439
   40SOL    HW1 3126   0.528   1.769   1.474
   40SOL    HW2 3127   0.648   1.878   1.465
   41SOL     OW 3128   0.606   0.964   0.123
   41SOL    HW1 3129   0.613   1.048   0.069
   41SOL    HW2 3130   0.652   0.977   0.211
   42SOL     OW 3131   1.594   0.114   1.480
   42SOL    HW1 3132   1.576   0.181   1.408
   42SOL    HW2 3133   1.591   0.160   1.569
   43SOL     OW 3134   0.122   0.643   0.563
   43SOL    HW1 3135   0.077   0.555   0.580
   43SOL    HW2 3136   0.121   0.697   0.647
   44SOL     OW 3137   1.842   1.767   0.359
   44SOL    HW1 3138   1.896   1.738   0.439
   44SOL    HW2 3139   1.872   1.857   0.330
   45SOL     OW 3140   0.027   1.596   0.117
   45SOL    HW1 3141   0.008   1.500   0.138
   45SOL    HW2 3142  -0.006   1.654   0.192
   46SOL     OW 3143   1.689   0.922   0.612
   46SOL    HW1 3144   1.784   0.893   0.620
   46SOL    HW2 3145   1.681   0.987   0.537
   47SOL     OW 3146   1.641   1.108   0.432
   47SOL    HW1 3147   1.727   1.110   0.380
   47SOL    HW2 3148   1.655   1.155   0.520
   48SOL     OW 3149   0.113   0.737   1.597
   48SOL    HW1 3150   0.201   0.724   1.642
   48SOL    HW2 3151   0.100   0.834   1.575
   49SOL     OW 3152   0.613   1.365   0.726
   49SOL    HW1 3153   0.564   1.278   0.735
   49SOL    HW2 3154   0.590   1.408   0.639
   50SOL     OW 3155   1.293   1.228   1.423
   50SOL    HW1 3156   1.330   1.155   1.365
   50SOL    HW2 3157   1.345   1.233   1.508
   51SOL     OW 3158   0.809   0.004   0.502
   51SOL    HW1 3159   0.849   0.095   0.493
   51SOL    HW2 3160   0.709   0.012   0.508
   52SOL     OW 3161   0.197   0.976   1.264
   52SOL    HW1 3162   0.286   0.931   1.250
   52SOL    HW2 3163   0.124   0.911   1.245
   53SOL     OW 3164   1.525   0.999   0.190
   53SOL    HW1 3165   1.462   0.923   0.203
   53SOL    HW2 3166   1.573   1.017   0.276
   54SOL     OW 3167   0.317   0.251   1.801
   54SOL    HW1 3168   0.388   0.322   1.807
   54SOL    HW2 3169   0.229   0.290   1.829
   55SOL     OW 3170   1.466   1.417   0.953
   55SOL    HW1 3171   1.407   1.423   1.033
   55SOL    HW2 3172   1.451   1.329   0.907
   56SOL     OW 3173   1.667   1.714   0.572
   56SOL    HW1 3174   1.626   1.691   0.484
   56SOL    HW2 3175   1.649   1.640   0.637
   57SOL     OW 3176   0.598   0.729   0.270
   57SOL    HW1 3177   0.622   0.798   0.202
   57SOL    HW2 3178   0.520   0.762   0.324
   58SOL     OW 3179   1.281   0.345   0.944
   58SOL    HW1 3180   1.195   0.295   0.931
   58SOL    HW2 3181   1.343   0.291   1.000
   59SOL     OW 3182   1.576   1.662   0.307
   59SOL    HW1 3183   1.665   1.708   0.310
   59SOL    HW2 3184   1.555   1.638   0.212
   60SOL     OW 3185   0.807   0.605   1.465
   60SOL    HW1 3186   0.760   0.602   1.554
   60SOL    HW2 3187   0.756   0.550   1.399
   61SOL     OW 3188   1.394   0.469   1.674
   61SOL    HW1 3189   1.374   0.512   1.762
   61SOL    HW2 3190   1.472   0.407   1.683
   62SOL     OW 3191   0.973   0.890   1.572
   62SOL    HW1 3192   1.019   0.806   1.543
   62SOL    HW2 3193   0.917   0.924   1.497
   63SOL     OW 3194   0.991   0.410   1.242
   63SOL    HW1 3195   0.914   0.444   1.296
   63SOL    HW2 3196   0.957   0.359   1.163
   64SOL     OW 3197   1.041   0.701   0.429
   64SOL    HW1 3198   1.067   0.697   0.525
   64SOL    HW2 3199   0.956   0.650   0.415
   65SOL     OW 3200   0.076   0.811   0.789
   65SOL    HW1 3201   0.175   0.799   0.798
   65SOL    HW2 3202   0.052   0.906   0.810
   66SOL     OW 3203   0.130   1.821   1.571
   66SOL    HW1 3204   0.120   1.806   1.670
   66SOL    HW2 3205   0.044   1.857   1.535
   67SOL     OW 3206   0.865   0.348   0.195
   67SOL    HW1 3207   0.924   0.411   0.146
   67SOL    HW2 3208   0.884   0.254   0.166
   68SOL     OW 3209   1.719   0.585   1.831
   68SOL    HW1 3210   1.693   0.674   1.795
   68SOL    HW2 3211   1.717   0.517   1.758
   69SOL     OW 3212   1.362   1.144   0.545
   69SOL    HW1 3213   1.445   1.115   0.497
   69SOL    HW2 3214   1.313   1.211   0.489
   70SOL     OW 3215   0.550   0.196   0.885
   70SOL    HW1 3216   0.545   0.191   0.985
   70SOL    HW2 3217   0.552   0.292   0.856
   71SOL     OW 3218   1.008   1.456   0.477
   71SOL    HW1 3219   0.962   1.528   0.425
   71SOL    HW2 3220   1.004   1.476   0.575
   72SOL     OW 3221   0.351   1.801   0.853
   72SOL    HW1 3222   0.401   1.715   0.859
   72SOL    HW2 3223   0.416   1.878   0.850
   73SOL     OW 3224   1.795   1.066   0.873
   73SOL    HW1 3225   1.733   1.051   0.797
   73SOL    HW2 3226   1.743   1.077   0.958
   74SOL     OW 3227   0.321   0.943   0.242
   74SOL    HW1 3228   0.403   0.982   0.200
   74SOL    HW2 3229   0.294   0.861   0.193
   75SOL     OW 3230   1.458   0.735   0.728
   75SOL    HW1 3231   1.453   0.670   0.803
   75SOL    HW2 3232   1.538   0.794   0.741
   76SOL     OW 3233   0.461   1.266   1.727
   76SOL    HW1 3234   0.411   1.267   1.641
   76SOL    HW2 3235   0.398   1.248   1.803
   77SOL     OW 3236   1.111   1.776   0.237
   77SOL    HW1 3237   1.051   1.714   0.287
   77SOL    HW2 3238   1.142   1.732   0.152
   78SOL     OW 3239   0.202   0.285   1.498
   78SOL    HW1 3240   0.122   0.345   1.485
   78SOL    HW2 3241   0.192   0.236   1.584
   79SOL     OW 3242   1.632   1.377   0.081
   79SOL    HW1 3243   1.600   1.471   0.071
   79SOL    HW2 3244   1.556   1.314   0.069
   80SOL     OW 3245   0.464   1.743   0.323
   80SOL    HW1 3246   0.497   1.782   0.409
   80SOL    HW2 3247   0.540   1.736   0.258
   81SOL     OW 3248   1.400   0.107   0.426
   81SOL    HW1 3249   1.376   0.070   0.336
   81SOL    HW2 3250   1.499   0.123   0.430
   82SOL     OW 3251   0.249   1.785   1.241
   82SOL    HW1 3252   0.306   1.720   1.291
   82SOL    HW2 3253   0.233   1.752   1.148
   83SOL     OW 3254   0.940   1.698   0.904
   83SOL    HW1 3255   1.020   1.641   0.925
   83SOL    HW2 3256   0.891   1.658   0.827
   84SOL     OW 3257   0.382   0.700   0.480
   84SOL    HW1 3258   0.427   0.610   0.477
   84SOL    HW2 3259   0.288   0.689   0.513
   85SOL     OW 3260   1.547   0.222   1.729
   85SOL    HW1 3261   1.542   0.259   1.821
   85SOL    HW2 3262   1.475   0.153   1.717
   86SOL     OW 3263   0.614   0.122   0.117
   86SOL    HW1 3264   0.712   0.100   0.124
   86SOL    HW2 3265   0.583   0.105   0.024
   87SOL     OW 3266   0.781   0.264   1.749
   87SOL    HW1 3267   0.848   0.203   1.792
   87SOL    HW2 3268   0.708   0.283   1.814
   88SOL     OW 3269   1.351   0.590   1.433
   88SOL    HW1 3270   1.379   0.547   1.518
   88SOL    HW2 3271   1.376   0.686   1.434
   89SOL     OW 3272   0.803   1.402   0.924
   89SOL    HW1 3273   0.893   1.416   0.882
   89SOL    HW2 3274   0.732   1.404   0.853
   90SOL     OW 3275   0.922   0.503   0.899
   90SOL    HW1 3276   0.897   0.494   0.803
   90SOL    HW2 3277   0.970   0.421   0.930
   91SOL     OW 3278   0.539   0.064   0.512
   91SOL    HW1 3279   0.458   0.065   0.570
   91SOL    HW2 3280   0.542   0.147   0.457
   92SOL     OW 3281   0.297   0.035   0.171
   92SOL    HW1 3282   0.346   0.119   0.150
   92SOL    HW2 3283   0.359  -0.030   0.216
   93SOL     OW 3284   0.935   0.236   0.480
   93SOL    HW1 3285   0.887   0.277   0.402
   93SOL    HW2 3286   1.034   0.234   0.461
   94SOL     OW 3287   1.076   0.683   1.464
   94SOL    HW1 3288   0.996   0.622   1.467
   94SOL    HW2 3289   1.157   0.630   1.440
   95SOL     OW 3290   1.227   1.570   0.793
   95SOL    HW1 3291   1.248   1.644   0.728
   95SOL    HW2 3292   1.295   1.570   0.866
   96SOL     OW 3293   0.459   1.152   0.741
   96SOL    HW1 3294   0.388   1.125   0.806
   96SOL    HW2 3295   0.433   1.124   0.648
   97SOL     OW 3296   1.271   1.797   0.591
   97SOL    HW1 3297   1.315   1.861   0.527
   97SOL    HW2 3298   1.221   1.849   0.661
   98SOL     OW 3299   1.032   0.549   0.016
   98SOL    HW1 3300   0.991   0.631  -0.023
   98SOL    HW2 3301   1.096   0.575   0.089
   99SOL     OW 3302   0.078   0.556   1.386
   99SOL    HW1 3303   0.170   0.555   1.345
   99SOL    HW2 3304   0.072   0.630   1.453
  100SOL     OW 3305   0.561   0.222   1.147
  100SOL    HW1 3306   0.599   0.138   1.184
  100SOL    HW2 3307   0.473   0.241   1.191
  101SOL     OW 3308   0.866   0.454   0.642
  101SOL    HW1 3309   0.834   0.526   0.580
  101SOL    HW2 3310   0.890   0.373   0.589
  102SOL     OW 3311   1.017   0.039   0.753
  102SOL    HW1 3312   0.945   0.044   0.684
  102SOL    HW2 3313   0.993  -0.030   0.822
  103SOL     OW 3314   1.429   1.173   0.867
  103SOL    HW1 3315   1.374   1.089   0.860
  103SOL    HW2 3316   1.455   1.202   0.775
  104SOL     OW 3317   1.466   0.590   0.992
  104SOL    HW1 3318   1.436   0.495   0.999
  104SOL    HW2 3319   1.539   0.606   1.058
  105SOL     OW 3320   1.857   0.833   0.377
  105SOL    HW1 3321   1.899   0.769   0.441
  105SOL    HW2 3322   1.819   0.782   0.299
  106SOL     OW 3323   0.488   1.385   0.174
  106SOL    HW1 3324   0.401   1.370   0.221
  106SOL    HW2 3325   0.471   1.411   0.079
  107SOL     OW 3326   1.664   1.280   0.657
  107SOL    HW1 3327   1.763   1.288   0.671
  107SOL    HW2 3328   1.619   1.364   0.688
  108SOL     OW 3329   1.390   0.575   0.078
  108SOL    HW1 3330   1.336   0.554   0.159
  108SOL    HW2 3331   1.481   0.534   0.087
  109SOL     OW 3332   0.527   0.256   0.328
  109SOL    HW1 3333   0.554   0.197   0.253
  109SOL    HW2 3334   0.527   0.351   0.297
  110SOL     OW 3335   1.638   1.099   1.079
  110SOL    HW1 3336   1.643   1.180   1.138
  110SOL    HW2 3337   1.552   1.101   1.028
  111SOL     OW 3338   0.915   0.089   1.402
  111SOL    HW1 3339   0.940   0.069   1.307
  111SOL    HW2 3340   0.987   0.145   1.444
  112SOL     OW 3341   0.980   1.116   1.719
  112SOL    HW1 3342   0.881   1.122   1.729
  112SOL    HW2 3343   1.003   1.036   1.663
  113SOL     OW 3344   0.705   1.050   0.368
  113SOL    HW1 3345   0.691   1.057   0.467
  113SOL    HW2 3346   0.789   0.999   0.350
  114SOL     OW 3347   0.410   0.813   1.251
  114SOL    HW1 3348   0.496   0.825   1.301
  114SOL    HW2 3349   0.368   0.726   1.278
  115SOL     OW 3350   1.274   0.386   1.262
  115SOL    HW1 3351   1.295   0.460   1.326
  115SOL    HW2 3352   1.185   0.403   1.219
  116SOL     OW 3353   0.064   1.564   1.331
  116SOL    HW1 3354   0.018   1.646   1.297
  116SOL    HW2 3355   0.162   1.583   1.340
  117SOL     OW 3356   0.367   1.100   0.501
  117SOL    HW1 3357   0.360   1.183   0.445
  117SOL    HW2 3358   0.371   1.020   0.441
  118SOL     OW 3359   0.566   0.537   0.865
  118SOL    HW1 3360   0.578   0.603   0.791
  118SOL    HW2 3361   0.612   0.571   0.948
  119SOL     OW 3362   1.252   1.348   0.388
  119SOL    HW1 3363   1.302   1.425   0.428
  119SOL    HW2 3364   1.157   1.350   0.420
  120SOL     OW 3365   1.272   1.445   1.142
  120SOL    HW1 3366   1.319   1.458   1.229
  120SOL    HW2 3367   1.206   1.371   1.151
  121SOL     OW 3368   1.582   0.639   0.472
  121SOL    HW1 3369   1.551   0.700   0.545
  121SOL    HW2 3370   1.632   0.691   0.403
  122SOL     OW 3371   0.354   1.510   1.329
  122SOL    HW1 3372   0.333   1.466   1.242
  122SOL    HW2 3373   0.451   1.536   1.332
  123SOL     OW 3374   0.402   0.751   1.598
  123SOL    HW1 3375   0.470   0.806   1.551
  123SOL    HW2 3376   0.442   0.663   1.625
  124SOL     OW 3377   1.587   0.779   1.670
  124SOL    HW1 3378   1.495   0.817   1.665
  124SOL    HW2 3379   1.647   0.826   1.605
  125SOL     OW 3380   1.013   0.105   1.770
  125SOL    HW1 3381   1.019   0.190   1.718
  125SOL    HW2 3382   1.045   0.029   1.713
  126SOL     OW 3383   0.504   0.050   1.740
  126SOL    HW1 3384   0.462  -0.007   1.670
  126SOL    HW2 3385   0.438   0.119   1.772
  127SOL     OW 3386   0.573   0.870   1.029
  127SOL    HW1 3387   0.617   0.959   1.020
  127SOL    HW2 3388   0.510   0.870   1.106
  128SOL     OW 3389   1.360   0.862   1.045
  128SOL    HW1 3390   1.285   0.862   0.979
  128SOL    HW2 3391   1.397   0.770   1.054
  129SOL     OW 3392   1.209   0.525   0.275
  129SOL    HW1 3393   1.222   0.441   0.329
  129SOL    HW2 3394   1.180   0.599   0.335
  130SOL     OW 3395   0.307   0.213   1.231
  130SOL    HW1 3396   0.284   0.250   1.321
  130SOL    HW2 3397   0.277   0.118   1.225
  131SOL     OW 3398   0.037   1.310   1.282
  131SOL    HW1 3399   0.090   1.261   1.350
  131SOL    HW2 3400   0.059   1.408   1.287
  132SOL     OW 3401   0.732   0.634   1.064
  132SOL    HW1 3402   0.791   0.608   0.988
  132SOL    HW2 3403   0.704   0.730   1.053
  133SOL     OW 3404   1.728   0.935   1.854
  133SOL    HW1 3405   1.682   0.928   1.765
  133SOL    HW2 3406   1.666   0.979   1.920
  134SOL     OW 3407   0.307   0.063   0.618
  134SOL    HW1 3408   0.296   0.157   0.651
  134SOL    HW2 3409   0.302   0.000   0.695
  135SOL     OW 3410   1.622   0.367   0.374
  135SOL    HW1 3411   1.624   0.291   0.438
  135SOL    HW2 3412   1.574   0.444   0.414
  136SOL     OW 3413   1.023   0.766   0.966
  136SOL    HW1 3414   1.038   0.787   1.062
  136SOL    HW2 3415   0.993   0.671   0.957
  137SOL     OW 3416   0.350   0.898   1.804
  137SOL    HW1 3417   0.426   0.942   1.852
  137SOL    HW2 3418   0.385   0.851   1.722
  138SOL     OW 3419   1.540   0.274   0.125
  138SOL    HW1 3420   1.479   0.199   0.148
  138SOL    HW2 3421   1.562   0.326   0.208
  139SOL     OW 3422   1.303   0.838   0.042
  139SOL    HW1 3423   1.337   0.745   0.057
  139SOL    HW2 3424   1.321   0.865  -0.053
  140SOL     OW 3425   1.068   1.333   0.849
  140SOL    HW1 3426   1.075   1.249   0.794
  140SOL    HW2 3427   1.130   1.402   0.813
  141SOL     OW 3428   0.319   0.810   0.949
  141SOL    HW1 3429   0.412   0.846   0.954
  141SOL    HW2 3430   0.313   0.725   1.001
  142SOL     OW 3431   0.339   0.509   1.006
  142SOL    HW1 3432   0.287   0.426   0.989
  142SOL    HW2 3433   0.416   0.514   0.942
  143SOL     OW 3434   1.138   0.380   1.678
  143SOL    HW1 3435   1.093   0.443   1.742
  143SOL    HW2 3436   1.231   0.411   1.661
  144SOL     OW 3437   1.160   0.207   1.477
  144SOL    HW1 3438   1.160   0.271   1.554
  144SOL    HW2 3439   1.188   0.255   1.394
  145SOL     OW 3440   0.008   1.326   0.200
  145SOL    HW1 3441  -0.085   1.347   0.169
  145SOL    HW2 3442   0.018   1.227   0.213
  146SOL     OW 3443   0.088   1.801   0.927
  146SOL    HW1 3444   0.046   1.715   0.900
  146SOL    HW2 3445   0.182   1.804   0.893
  147SOL     OW 3446   0.504   1.568   0.910
  147SOL    HW1 3447   0.570   1.642   0.919
  147SOL    HW2 3448   0.548   1.489   0.868
  148SOL     OW 3449   1.002   0.796   1.238
  148SOL    HW1 3450   1.043   0.764   1.324
  148SOL    HW2 3451   0.906   0.769   1.235
  149SOL     OW 3452   0.040   0.544   1.114
  149SOL    HW1 3453   0.125   0.511   1.073
  149SOL    HW2 3454   0.053   0.559   1.212
  150SOL     OW 3455   0.189   0.520   1.722
  150SOL    HW1 3456   0.248   0.480   1.652
  150SOL    HW2 3457   0.131   0.591   1.681
  151SOL     OW 3458   1.369   0.950   1.660
  151SOL    HW1 3459   1.408   1.039   1.680
  151SOL    HW2 3460   1.379   0.930   1.563
  152SOL     OW 3461   0.815   0.572   0.325
  152SOL    HW1 3462   0.822   0.483   0.279
  152SOL    HW2 3463   0.721   0.606   0.317
  153SOL     OW 3464   1.657   0.604   1.206
  153SOL    HW1 3465   1.619   0.535   1.268
  153SOL    HW2 3466   1.739   0.568   1.162
  154SOL     OW 3467   0.252   1.564   1.744
  154SOL    HW1 3468   0.222   1.621   1.820
  154SOL    HW2 3469   0.245   1.467   1.770
  155SOL     OW 3470   0.671   0.464   1.269
  155SOL    HW1 3471   0.637   0.375   1.239
  155SOL    HW2 3472   0.697   0.518   1.189
  156SOL     OW 3473   0.930   1.678   1.465
  156SOL    HW1 3474   0.906   1.660   1.370
  156SOL    HW2 3475   0.960   1.772   1.475
  157SOL     OW 3476   0.473   0.500   0.191
  157SOL    HW1 3477   0.534   0.580   0.195
  157SOL    HW2 3478   0.378   0.531   0.198
  158SOL     OW 3479   0.159   1.137   1.466
  158SOL    HW1 3480   0.181   1.076   1.542
  158SOL    HW2 3481   0.169   1.088   1.380
  159SOL     OW 3482   1.347   1.059   1.234
  159SOL    HW1 3483   1.371   0.996   1.160
  159SOL    HW2 3484   1.257   1.099   1.216
  160SOL     OW 3485   1.302   0.855   0.309
  160SOL    HW1 3486   1.216   0.824   0.351
  160SOL    HW2 3487   1.298   0.841   0.210
  161SOL     OW 3488   1.252   1.731   1.128
  161SOL    HW1 3489   1.336   1.736   1.074
  161SOL    HW2 3490   1.229   1.635   1.146
  162SOL     OW 3491   0.083   1.258   1.022
  162SOL    HW1 3492   0.078   1.257   1.122
  162SOL    HW2 3493   0.000   1.217   0.984
  163SOL     OW 3494   0.688   1.662   1.716
  163SOL    HW1 3495   0.632   1.743   1.725
  163SOL    HW2 3496   0.740   1.666   1.630
  164SOL     OW 3497   0.903   0.086   0.133
  164SOL    HW1 3498   0.954   0.087   0.047
  164SOL    HW2 3499   0.959   0.044   0.204
  165SOL     OW 3500   1.726   0.135   0.523
  165SOL    HW1 3501   1.799   0.118   0.456
  165SOL    HW2 3502   1.695   0.048   0.561
  166SOL     OW 3503   1.388   1.573   0.477
  166SOL    HW1 3504   1.455   1.585   0.403
  166SOL    HW2 3505   1.348   1.662   0.500
  167SOL     OW 3506   0.130   1.794   1.851
  167SOL    HW1 3507   0.089   1.720   1.904
  167SOL    HW2 3508   0.194   1.845   1.909
  168SOL     OW 3509   1.280   0.927   0.672
  168SOL    HW1 3510   1.340   0.846   0.674
  168SOL    HW2 3511   1.320   0.996   0.612
  169SOL     OW 3512   0.672   1.616   0.154
  169SOL    HW1 3513   0.681   1.626   0.055
  169SOL    HW2 3514   0.632   1.527   0.175
  170SOL     OW 3515   1.841   0.175   0.963
  170SOL    HW1 3516   1.880   0.090   0.927
  170SOL    HW2 3517   1.743   0.177   0.944
  171SOL     OW 3518   0.263   0.326   0.720
  171SOL    HW1 3519   0.184   0.377   0.686
  171SOL    HW2 3520   0.254   0.311   0.818
  172SOL     OW 3521   0.822   1.002   1.372
  172SOL    HW1 3522   0.862   1.001   1.280
  172SOL    HW2 3523   0.832   1.094   1.412
  173SOL     OW 3524   0.916   0.910   0.291
  173SOL    HW1 3525   0.979   0.948   0.223
  173SOL    HW2 3526   0.956   0.827   0.330
  174SOL     OW 3527   0.372   1.288   1.490
  174SOL    HW1 3528   0.359   1.381   1.456
  174SOL    HW2 3529   0.288   1.236   1.477
  175SOL     OW 3530   1.039   1.098   0.696
  175SOL    HW1 3531   0.969   1.051   0.750
  175SOL    HW2 3532   1.098   1.030   0.653
  176SOL     OW 3533   1.014   0.236   0.971
  176SOL    HW1 3534   1.006   0.200   0.878
  176SOL    HW2 3535   1.012   0.160   1.036
  177SOL     OW 3536   0.590   1.487   0.491
  177SOL    HW1 3537   0.632   1.429   0.421
  177SOL    HW2 3538   0.546   1.566   0.447
  178SOL     OW 3539   1.709   0.385   1.381
  178SOL    HW1 3540   1.782   0.454   1.385
  178SOL    HW2 3541   1.737   0.310   1.322
  179SOL     OW 3542   0.255   1.348   0.290
  179SOL    HW1 3543   0.159   1.349   0.263
  179SOL    HW2 3544   0.267   1.401   0.374
  180SOL     OW 3545   0.105   1.013   1.726
  180SOL    HW1 3546   0.028   0.980   1.780
  180SOL    HW2 3547   0.190   0.983   1.768
  181SOL     OW 3548   0.672   0.203   1.489
  181SOL    HW1 3549   0.762   0.187   1.449
  181SOL    HW2 3550   0.680   0.208   1.588
  182SOL     OW 3551   0.075   0.345   0.033
  182SOL    HW1 3552  -0.017   0.317   0.004
  182SOL    HW2 3553   0.106   0.422  -0.023
  183SOL     OW 3554   1.440   0.856   1.398
  183SOL    HW1 3555   1.383   0.908   1.335
  183SOL    HW2 3556   1.536   0.868   1.374
  184SOL     OW 3557   0.072   0.166   0.318
  184SOL    HW1 3558   0.055   0.249   0.264
  184SOL    HW2 3559   0.162   0.129   0.296
  185SOL     OW 3560   0.613   0.842   1.431
  185SOL    HW1 3561   0.669   0.923   1.414
  185SOL    HW2 3562   0.672   0.762   1.434
  186SOL     OW 3563   1.493   1.767   0.959
  186SOL    HW1 3564   1.526   1.831   0.890
  186SOL    HW2 3565   1.559   1.761   1.034
  187SOL     OW 3566   0.716   0.565   1.708
  187SOL    HW1 3567   0.735   0.630   1.782
  187SOL    HW2 3568   0.776   0.485   1.717
  188SOL     OW 3569   1.450   1.220   1.633
  188SOL    HW1 3570   1.441   1.210   1.732
  188SOL    HW2 3571   1.546   1.213   1.607
  189SOL     OW 3572   0.390   1.741   1.560
  189SOL    HW1 3573   0.299   1.782   1.558
  189SOL    HW2 3574   0.383   1.647   1.592
  190SOL     OW 3575   1.674   0.883   1.254
  190SOL    HW1 3576   1.647   0.794   1.217
  190SOL    HW2 3577   1.675   0.951   1.181
  191SOL     OW 3578   1.225   0.325   0.449
  191SOL    HW1 3579   1.290   0.251   0.438
  191SOL    HW2 3580   1.245   0.375   0.533
  192SOL     OW 3581   0.594   0.745   0.652
  192SOL    HW1 3582   0.644   0.830   0.633
  192SOL    HW2 3583   0.506   0.747   0.604
  193SOL     OW 3584   1.777   0.342   1.642
  193SOL    HW1 3585   1.760   0.373   1.548
  193SOL    HW2 3586   1.693   0.305   1.680
  194SOL     OW 3587   1.730   0.934   1.517
  194SOL    HW1 3588   1.768   1.025   1.532
  194SOL    HW2 3589   1.722   0.917   1.418
  195SOL     OW 3590   0.859   1.374   0.016
  195SOL    HW1 3591   0.813   1.389   0.104
  195SOL    HW2 3592   0.903   1.459  -0.014
  196SOL     OW 3593   0.661   1.790   0.953
  196SOL    HW1 3594   0.615   1.878   0.940
  196SOL    HW2 3595   0.760   1.802   0.946
  197SOL     OW 3596   0.859   0.956   0.861
  197SOL    HW1 3597   0.913   0.887   0.909
  197SOL    HW2 3598   0.827   1.025   0.927
  198SOL     OW 3599   1.083   0.984   0.087
  198SOL    HW1 3600   1.060   1.037   0.005
  198SOL    HW2 3601   1.164   0.928   0.068
  199SOL     OW 3602   1.861   1.569   0.851
  199SOL    HW1 3603   1.790   1.557   0.781
  199SOL    HW2 3604   1.862   1.490   0.911
  200SOL     OW 3605   0.221   1.314   1.844
  200SOL    HW1 3606   0.156   1.241   1.823
  200SOL    HW2 3607   0.225   1.328   1.942
  201SOL     OW 3608   0.079   1.240   0.653
  201SOL    HW1 3609   0.078   1.193   0.741
  201SOL    HW2 3610   0.161   1.212   0.602
  202SOL     OW 3611   0.672   1.391   1.624
  202SOL    HW1 3612   0.594   1.341   1.662
  202SOL    HW2 3613   0.669   1.486   1.655
  203SOL     OW 3614   1.824   0.192   1.227
  203SOL    HW1 3615   1.820   0.102   1.271
  203SOL    HW2 3616   1.827   0.181   1.128
  204SOL     OW 3617   0.428   0.424   0.520
  204SOL    HW1 3618   0.458   0.352   0.458
  204SOL    HW2 3619   0.389   0.384   0.603
  205SOL     OW 3620   0.317   0.547   1.280
  205SOL    HW1 3621   0.355   0.488   1.352
  205SOL    HW2 3622   0.357   0.521   1.192
  206SOL     OW 3623   0.812   1.586   0.687
  206SOL    HW1 3624   0.844   1.596   0.593
  206SOL    HW2 3625   0.733   1.524   0.689
  207SOL     OW 3626   1.424   0.214   1.112
  207SOL    HW1 3627   1.476   0.149   1.167
  207SOL    HW2 3628   1.375   0.277   1.173
  208SOL     OW 3629   1.001   0.034   1.154
  208SOL    HW1 3630   0.938  -0.038   1.123
  208SOL    HW2 3631   1.094  -0.002   1.154
  209SOL     OW 3632   0.770   1.330   0.301
  209SOL    HW1 3633   0.724   1.243   0.318
  209SOL    HW2 3634   0.861   1.327   0.342
  210SOL     OW 3635   0.618   1.567   1.284
  210SOL    HW1 3636   0.613   1.649   1.341
  210SOL    HW2 3637   0.707   1.564   1.239
  211SOL     OW 3638   1.352   0.052   0.168
  211SOL    HW1 3639   1.387   0.011   0.084
  211SOL    HW2 3640   1.262   0.014   0.188
  212SOL     OW 3641   1.300   0.453   0.691
  212SOL    HW1 3642   1.241   0.533   0.695
  212SOL    HW2 3643   1.315   0.418   0.784
  213SOL     OW 3644   1.593   0.221   0.882
  213SOL    HW1 3645   1.509   0.220   0.936
  213SOL    HW2 3646   1.595   0.304   0.826
  214SOL     OW 3647   0.039   1.077   0.300
  214SOL    HW1 3648   0.138   1.066   0.291
  214SOL    HW2 3649  -0.001   0.991   0.332
  215SOL     OW 3650   0.875   1.646   0.337
  215SOL    HW1 3651   0.798   1.611   0.283
  215SOL    HW2 3652   0.843   1.717   0.399
  216SOL     OW 3653   0.230   0.628   1.975
  216SOL    HW1 3654   0.137   0.626   2.012
  216SOL    HW2 3655   0.231   0.589   1.883
  217SOL     OW 3656   0.225   0.275   2.858
  217SOL    HW1 3657   0.260   0.258   2.950
  217SOL    HW2 3658   0.137   0.230   2.846
  218SOL     OW 3659   0.019   0.368   2.509
  218SOL    HW1 3660  -0.063   0.411   2.548
  218SOL    HW2 3661  -0.009   0.295   2.446
  219SOL     OW 3662   0.569   1.275   3.027
  219SOL    HW1 3663   0.476   1.268   2.990
  219SOL    HW2 3664   0.580   1.364   3.071
  220SOL     OW 3665   1.135   0.703   2.579
  220SOL    HW1 3666   1.192   0.781   2.554
  220SOL    HW2 3667   1.075   0.729   2.655
  221SOL     OW 3668   1.755   0.607   2.093
  221SOL    HW1 3669   1.743   0.594   1.994
  221SOL    HW2 3670   1.725   0.526   2.142
  222SOL     OW 3671   0.768   1.144   2.885
  222SOL    HW1 3672   0.690   1.161   2.945
  222SOL    HW2 3673   0.802   1.231   2.849
  223SOL     OW 3674   0.850   0.798   3.685
  223SOL    HW1 3675   0.846   0.874   3.750
  223SOL    HW2 3676   0.872   0.834   3.594
  224SOL     OW 3677   0.685   1.012   2.527
  224SOL    HW1 3678   0.754   0.996   2.597
  224SOL    HW2 3679   0.612   1.069   2.565
  225SOL     OW 3680   0.686   1.161   3.665
  225SOL    HW1 3681   0.746   1.240   3.679
  225SOL    HW2 3682   0.600   1.192   3.624
  226SOL     OW 3683   0.335   1.435   2.923
  226SOL    HW1 3684   0.257   1.404   2.870
  226SOL    HW2 3685   0.393   1.493   2.866
  227SOL     OW 3686   0.438   0.392   3.361
  227SOL    HW1 3687   0.520   0.336   3.370
  227SOL    HW2 3688   0.357   0.334   3.365
  228SOL     OW 3689   1.603   0.447   2.599
  228SOL    HW1 3690   1.529   0.493   2.549
  228SOL    HW2 3691   1.654   0.515   2.652
  229SOL     OW 3692   0.231   1.713   2.345
  229SOL    HW1 3693   0.265   1.790   2.399
  229SOL    HW2 3694   0.275   1.713   2.255
  230SOL     OW 3695   1.127   1.341   3.552
  230SOL    HW1 3696   1.174   1.341   3.640
  230SOL    HW2 3697   1.079   1.254   3.541
  231SOL     OW 3698   0.230   1.434   2.400
  231SOL    HW1 3699   0.204   1.530   2.400
  231SOL    HW2 3700   0.159   1.380   2.445
  232SOL     OW 3701   0.240   1.091   2.748
  232SOL    HW1 3702   0.254   1.007   2.800
  232SOL    HW2 3703   0.185   1.155   2.803
  233SOL     OW 3704   0.620   1.786   3.301
  233SOL    HW1 3705   0.528   1.769   3.336
  233SOL    HW2 3706   0.648   1.878   3.327
  234SOL     OW 3707   0.606   0.964   1.985
  234SOL    HW1 3708   0.613   1.048   1.931
  234SOL    HW2 3709   0.652   0.977   2.073
  235SOL     OW 3710   1.594   0.114   3.342
  235SOL    HW1 3711   1.576   0.181   3.270
  235SOL    HW2 3712   1.591   0.160   3.431
  236SOL     OW 3713   0.122   0.643   2.425
  236SOL    HW1 3714   0.077   0.555   2.442
  236SOL    HW2 3715   0.121   0.697   2.509
  237SOL     OW 3716   0.027   1.596   1.979
  237SOL    HW1 3717   0.008   1.500   2.000
  237SOL    HW2 3718  -0.006   1.654   2.054
  238SOL     OW 3719   1.689   0.922   2.474
  238SOL    HW1 3720   1.784   0.893   2.482
  238SOL    HW2 3721   1.681   0.987   2.399
  239SOL     OW 3722   0.113   0.737   3.459
  239SOL    HW1 3723   0.201   0.724   3.504
  239SOL    HW2 3724   0.100   0.834   3.437
  240SOL     OW 3725   0.613   1.365   2.588
  240SOL    HW1 3726   0.564   1.278   2.597
  240SOL    HW2 3727   0.590   1.408   2.501
  241SOL     OW 3728   1.293   1.228   3.285
  241SOL    HW1 3729   1.330   1.155   3.227
  241SOL    HW2 3730   1.345   1.233   3.370
  242SOL     OW 3731   0.809   0.004   2.364
  242SOL    HW1 3732   0.849   0.095   2.355
  242SOL    HW2 3733   0.709   0.012   2.370
  243SOL     OW 3734   0.197   0.976   3.126
  243SOL    HW1 3735   0.286   0.931   3.112
  243SOL    HW2 3736   0.124   0.911   3.107
  244SOL     OW 3737   0.317   0.251   3.663
  244SOL    HW1 3738   0.388   0.322   3.669
  244SOL    HW2 3739   0.229   0.290   3.691
  245SOL     OW 3740   0.598   0.729   2.132
  245SOL    HW1 3741   0.622   0.798   2.064
  245SOL    HW2 3742   0.520   0.762   2.186
  246SOL     OW 3743   1.281   0.345   2.806
  246SOL    HW1 3744   1.195   0.295   2.793
  246SOL    HW2 3745   1.343   0.291   2.862
  247SOL     OW 3746   0.807   0.605   3.327
  247SOL    HW1 3747   0.760   0.602   3.416
  247SOL    HW2 3748   0.756   0.550   3.261
  248SOL     OW 3749   1.394   0.469   3.536
  248SOL    HW1 3750   1.374   0.512   3.624
  248SOL    HW2 3751   1.472   0.407   3.545
  249SOL     OW 3752   0.973   0.890   3.434
  249SOL    HW1 3753   1.019   0.806   3.405
  249SOL    HW2 3754   0.917   0.924   3.359
  250SOL     OW 3755   0.991   0.410   3.104
  250SOL    HW1 3756   0.914   0.444   3.158
  250SOL    HW2 3757   0.957   0.359   3.025
  251SOL     OW 3758   1.041   0.701   2.291
  251SOL    HW1 3759   1.067   0.697   2.387
  251SOL    HW2 3760   0.956   0.650   2.277
  252SOL     OW 3761   0.076   0.811   2.651
  252SOL    HW1 3762   0.175   0.799   2.660
  252SOL    HW2 3763   0.052   0.906   2.672
  253SOL     OW 3764   0.130   1.821   3.433
  253SOL    HW1 3765   0.120   1.806   3.532
  253SOL    HW2 3766   0.044   1.857   3.397
  254SOL     OW 3767   0.865   0.348   2.057
  254SOL    HW1 3768   0.924   0.411   2.008
  254SOL    HW2 3769   0.884   0.254   2.028
  255SOL     OW 3770   1.719   0.585   3.693
  255SOL    HW1 3771   1.693   0.674   3.657
  255SOL    HW2 3772   1.717   0.517   3.620
  256SOL     OW 3773   0.550   0.196   2.747
  256SOL    HW1 3774   0.545   0.191   2.847
  256SOL    HW2 3775   0.552   0.292   2.718
  257SOL     OW 3776   1.008   1.456   2.339
  257SOL    HW1 3777   0.962   1.528   2.287
  257SOL    HW2 3778   1.004   1.476   2.437
  258SOL     OW 3779   0.351   1.801   2.715
  258SOL    HW1 3780   0.401   1.715   2.721
  258SOL    HW2 3781   0.416   1.878   2.712
  259SOL     OW 3782   0.321   0.943   2.104
  259SOL    HW1 3783   0.403   0.982   2.062
  259SOL    HW2 3784   0.294   0.861   2.055
  260SOL     OW 3785   1.458   0.735   2.590
  260SOL    HW1 3786   1.453   0.670   2.665
  260SOL    HW2 3787   1.538   0.794   2.603
  261SOL     OW 3788   0.461   1.266   3.589
  261SOL    HW1 3789   0.411   1.267   3.503
  261SOL    HW2 3790   0.398   1.248   3.665
  262SOL     OW 3791   0.202   0.285   3.360
  262SOL    HW1 3792   0.122   0.345   3.347
  262SOL    HW2 3793   0.192   0.236   3.446
  263SOL     OW 3794   0.464   1.743   2.185
  263SOL    HW1 3795   0.497   1.782   2.271
  263SOL    HW2 3796   0.540   1.736   2.120
  264SOL     OW 3797   1.400   0.107   2.288
  264SOL    HW1 3798   1.376   0.070   2.198
  264SOL    HW2 3799   1.499   0.123   2.292
  265SOL     OW 3800   0.249   1.785   3.103
  265SOL    HW1 3801   0.306   1.720   3.153
  265SOL    HW2 3802   0.233   1.752   3.010
  266SOL     OW 3803   0.382   0.700   2.342
  266SOL    HW1 3804   0.427   0.610   2.339
  266SOL    HW2 3805   0.288   0.689   2.375
  267SOL     OW 3806   1.547   0.222   3.591
  267SOL    HW1 3807   1.542   0.259   3.683
  267SOL    HW2 3808   1.475   0.153   3.579
  268SOL     OW 3809   0.614   0.122   1.979
  268SOL    HW1 3810   0.712   0.100   1.986
  268SOL    HW2 3811   0.583   0.105   1.886
  269SOL     OW 3812   0.781   0.264   3.611
  269SOL    HW1 3813   0.848   0.203   3.654
  269SOL    HW2 3814   0.708   0.283   3.676
  270SOL     OW 3815   0.888   1.514   3.057
  270SOL    HW1 3816   0.865   1.489   2.963
  270SOL    HW2 3817   0.949   1.445   3.096
  271SOL     OW 3818   1.351   0.590   3.295
  271SOL    HW1 3819   1.379   0.547   3.380
  271SOL    HW2 3820   1.376   0.686   3.296
  272SOL     OW 3821   0.803   1.402   2.786
  272SOL    HW1 3822   0.893   1.416   2.744
  272SOL    HW2 3823   0.732   1.404   2.715
  273SOL     OW 3824   0.922   0.503   2.761
  273SOL    HW1 3825   0.897   0.494   2.665
  273SOL    HW2 3826   0.970   0.421   2.792
  274SOL     OW 3827   0.539   0.064   2.374
  274SOL    HW1 3828   0.458   0.065   2.432
  274SOL    HW2 3829   0.542   0.147   2.319
  275SOL     OW 3830   0.297   0.035   2.033
  275SOL    HW1 3831   0.346   0.119   2.012
  275SOL    HW2 3832   0.359  -0.030   2.078
  276SOL     OW 3833   0.935   0.236   2.342
  276SOL    HW1 3834   0.887   0.277   2.264
  276SOL    HW2 3835   1.034   0.234   2.323
  277SOL     OW 3836   1.076   0.683   3.326
  277SOL    HW1 3837   0.996   0.622   3.329
  277SOL    HW2 3838   1.157   0.630   3.302
  278SOL     OW 3839   0.459   1.152   2.603
  278SOL    HW1 3840   0.388   1.125   2.668
  278SOL    HW2 3841   0.433   1.124   2.510
  279SOL     OW 3842   1.032   0.549   1.878
  279SOL    HW1 3843   0.991   0.631   1.839
  279SOL    HW2 3844   1.096   0.575   1.951
  280SOL     OW 3845   0.078   0.556   3.248
  280SOL    HW1 3846   0.170   0.555   3.207
  280SOL    HW2 3847   0.072   0.630   3.315
  281SOL     OW 3848   0.561   0.222   3.009
  281SOL    HW1 3849   0.599   0.138   3.046
  281SOL    HW2 3850   0.473   0.241   3.053
  282SOL     OW 3851   0.866   0.454   2.504
  282SOL    HW1 3852   0.834   0.526   2.442
  282SOL    HW2 3853   0.890   0.373   2.451
  283SOL     OW 3854   1.017   0.039   2.615
  283SOL    HW1 3855   0.945   0.044   2.546
  283SOL    HW2 3856   0.993  -0.030   2.684
  284SOL     OW 3857   1.466   0.590   2.854
  284SOL    HW1 3858   1.436   0.495   2.861
  284SOL    HW2 3859   1.539   0.606   2.920
  285SOL     OW 3860   1.857   0.833   2.239
  285SOL    HW1 3861   1.899   0.769   2.303
  285SOL    HW2 3862   1.819   0.782   2.161
  286SOL     OW 3863   0.488   1.385   2.036
  286SOL    HW1 3864   0.401   1.370   2.083
  286SOL    HW2 3865   0.471   1.411   1.941
  287SOL     OW 3866   1.390   0.575   1.940
  287SOL    HW1 3867   1.336   0.554   2.021
  287SOL    HW2 3868   1.481   0.534   1.949
  288SOL     OW 3869   0.527   0.256   2.190
  288SOL    HW1 3870   0.554   0.197   2.115
  288SOL    HW2 3871   0.527   0.351   2.159
  289SOL     OW 3872   1.754   1.223   3.450
  289SOL    HW1 3873   1.845   1.184   3.437
  289SOL    HW2 3874   1.762   1.319   3.474
  290SOL     OW 3875   1.064   1.347   3.202
  290SOL    HW1 3876   0.984   1.324   3.257
  290SOL    HW2 3877   1.147   1.321   3.251
  291SOL     OW 3878   1.111   1.195   2.962
  291SOL    HW1 3879   1.071   1.239   3.043
  291SOL    HW2 3880   1.070   1.232   2.879
  292SOL     OW 3881   0.915   0.089   3.264
  292SOL    HW1 3882   0.940   0.069   3.169
  292SOL    HW2 3883   0.987   0.145   3.306
  293SOL     OW 3884   0.980   1.116   3.581
  293SOL    HW1 3885   0.881   1.122   3.591
  293SOL    HW2 3886   1.003   1.036   3.525
  294SOL     OW 3887   0.705   1.050   2.230
  294SOL    HW1 3888   0.691   1.057   2.329
  294SOL    HW2 3889   0.789   0.999   2.212
  295SOL     OW 3890   0.410   0.813   3.113
  295SOL    HW1 3891   0.496   0.825   3.163
  295SOL    HW2 3892   0.368   0.726   3.140
  296SOL     OW 3893   1.274   0.386   3.124
  296SOL    HW1 3894   1.295   0.460   3.188
  296SOL    HW2 3895   1.185   0.403   3.081
  297SOL     OW 3896   0.064   1.564   3.193
  297SOL    HW1 3897   0.018   1.646   3.159
  297SOL    HW2 3898   0.162   1.583   3.202
  298SOL     OW 3899   0.367   1.100   2.363
  298SOL    HW1 3900   0.360   1.183   2.307
  298SOL    HW2 3901   0.371   1.020   2.303
  299SOL     OW 3902   0.566   0.537   2.727
  299SOL    HW1 3903   0.578   0.603   2.653
  299SOL    HW2 3904   0.612   0.571   2.810
  300SOL     OW 3905   1.252   1.348   2.250
  300SOL    HW1 3906   1.302   1.425   2.290
  300SOL    HW2 3907   1.157   1.350   2.282
  301SOL     OW 3908   1.582   0.639   2.334
  301SOL    HW1 3909   1.551   0.700   2.407
  301SOL    HW2 3910   1.632   0.691   2.265
  302SOL     OW 3911   0.354   1.510   3.191
  302SOL    HW1 3912   0.333   1.466   3.104
  302SOL    HW2 3913   0.451   1.536   3.194
  303SOL     OW 3914   0.402   0.751   3.460
  303SOL    HW1 3915   0.470   0.806   3.413
  303SOL    HW2 3916   0.442   0.663   3.487
  304SOL     OW 3917   1.587   0.779   3.532
  304SOL    HW1 3918   1.495   0.817   3.527
  304SOL    HW2 3919   1.647   0.826   3.467
  305SOL     OW 3920   1.013   0.105   3.632
  305SOL    HW1 3921   1.019   0.190   3.580
  305SOL    HW2 3922   1.045   0.029   3.575
  306SOL     OW 3923   0.504   0.050   3.602
  306SOL    HW1 3924   0.462  -0.007   3.532
  306SOL    HW2 3925   0.438   0.119   3.634
  307SOL     OW 3926   0.573   0.870   2.891
  307SOL    HW1 3927   0.617   0.959   2.882
  307SOL    HW2 3928   0.510   0.870   2.968
  308SOL     OW 3929   1.360   0.862   2.907
  308SOL    HW1 3930   1.285   0.862   2.841
  308SOL    HW2 3931   1.397   0.770   2.916
  309SOL     OW 3932   1.209   0.525   2.137
  309SOL    HW1 3933   1.222   0.441   2.191
  309SOL    HW2 3934   1.180   0.599   2.197
  310SOL     OW 3935   0.037   1.310   3.144
  310SOL    HW1 3936   0.090   1.261   3.212
  310SOL    HW2 3937   0.059   1.408   3.149
  311SOL     OW 3938   0.732   0.634   2.926
  311SOL    HW1 3939   0.791   0.608   2.850
  311SOL    HW2 3940   0.704   0.730   2.915
  312SOL     OW 3941   1.728   0.935   3.716
  312SOL    HW1 3942   1.682   0.928   3.627
  312SOL    HW2 3943   1.666   0.979   3.782
  313SOL     OW 3944   0.307   0.063   2.480
  313SOL    HW1 3945   0.296   0.157   2.513
  313SOL    HW2 3946   0.302   0.000   2.557
  314SOL     OW 3947   1.622   0.367   2.236
  314SOL    HW1 3948   1.624   0.291   2.300
  314SOL    HW2 3949   1.574   0.444   2.276
  315SOL     OW 3950   1.023   0.766   2.828
  315SOL    HW1 3951   1.038   0.787   2.924
  315SOL    HW2 3952   0.993   0.671   2.819
  316SOL     OW 3953   0.980   1.573   3.562
  316SOL    HW1 3954   0.960   1.617   3.474
  316SOL    HW2 3955   1.019   1.482   3.546
  317SOL     OW 3956   0.350   0.898   3.666
  317SOL    HW1 3957   0.426   0.942   3.714
  317SOL    HW2 3958   0.385   0.851   3.584
  318SOL     OW 3959   1.540   0.274   1.987
  318SOL    HW1 3960   1.479   0.199   2.010
  318SOL    HW2 3961   1.562   0.326   2.070
  319SOL     OW 3962   1.303   0.838   1.904
  319SOL    HW1 3963   1.337   0.745   1.919
  319SOL    HW2 3964   1.321   0.865   1.809
  320SOL     OW 3965   1.068   1.333   2.711
  320SOL    HW1 3966   1.075   1.249   2.656
  320SOL    HW2 3967   1.130   1.402   2.675
  321SOL     OW 3968   0.319   0.810   2.811
  321SOL    HW1 3969   0.412   0.846   2.816
  321SOL    HW2 3970   0.313   0.725   2.863
  322SOL     OW 3971   0.339   0.509   2.868
  322SOL    HW1 3972   0.287   0.426   2.851
  322SOL    HW2 3973   0.416   0.514   2.804
  323SOL     OW 3974   1.138   0.380   3.540
  323SOL    HW1 3975   1.093   0.443   3.604
  323SOL    HW2 3976   1.231   0.411   3.523
  324SOL     OW 3977   1.160   0.207   3.339
  324SOL    HW1 3978   1.160   0.271   3.416
  324SOL    HW2 3979   1.188   0.255   3.256
  325SOL     OW 3980   0.008   1.326   2.062
  325SOL    HW1 3981  -0.085   1.347   2.031
  325SOL    HW2 3982   0.018   1.227   2.075
  326SOL     OW 3983   0.088   1.801   2.789
  326SOL    HW1 3984   0.046   1.715   2.762
  326SOL    HW2 3985   0.182   1.804   2.755
  327SOL     OW 3986   0.504   1.568   2.772
  327SOL    HW1 3987   0.570   1.642   2.781
  327SOL    HW2 3988   0.548   1.489   2.730
  328SOL     OW 3989   1.002   0.796   3.100
  328SOL    HW1 3990   1.043   0.764   3.186
  328SOL    HW2 3991   0.906   0.769   3.097
  329SOL     OW 3992   0.040   0.544   2.976
  329SOL    HW1 3993   0.125   0.511   2.935
  329SOL    HW2 3994   0.053   0.559   3.074
  330SOL     OW 3995   0.189   0.520   3.584
  330SOL    HW1 3996   0.248   0.480   3.514
  330SOL    HW2 3997   0.131   0.591   3.543
  331SOL     OW 3998   1.369   0.950   3.522
  331SOL    HW1 3999   1.408   1.039   3.542
  331SOL    HW2 4000   1.379   0.930   3.425
  332SOL     OW 4001   0.815   0.572   2.187
  332SOL    HW1 4002   0.822   0.483   2.141
  332SOL    HW2 4003   0.721   0.606   2.179
  333SOL     OW 4004   1.657   0.604   3.068
  333SOL    HW1 4005   1.619   0.535   3.130
  333SOL    HW2 4006   1.739   0.568   3.024
  334SOL     OW 4007   0.252   1.564   3.606
  334SOL    HW1 4008   0.222   1.621   3.682
  334SOL    HW2 4009   0.245   1.467   3.632
  335SOL     OW 4010   0.930   1.678   3.327
  335SOL    HW1 4011   0.906   1.660   3.232
  335SOL    HW2 4012   0.960   1.772   3.337
  336SOL     OW 4013   0.473   0.500   2.053
  336SOL    HW1 4014   0.534   0.580   2.057
  336SOL    HW2 4015   0.378   0.531   2.060
  337SOL     OW 4016   0.159   1.137   3.328
  337SOL    HW1 4017   0.181   1.076   3.404
  337SOL    HW2 4018   0.169   1.088   3.242
  338SOL     OW 4019   1.347   1.059   3.096
  338SOL    HW1 4020   1.371   0.996   3.022
  338SOL    HW2 4021   1.257   1.099   3.078
  339SOL     OW 4022   1.302   0.855   2.171
  339SOL    HW1 4023   1.216   0.824   2.213
  339SOL    HW2 4024   1.298   0.841   2.072
  340SOL     OW 4025   0.083   1.258   2.884
  340SOL    HW1 4026   0.078   1.257   2.984
  340SOL    HW2 4027   0.000   1.217   2.846
  341SOL     OW 4028   0.688   1.662   3.578
  341SOL    HW1 4029   0.632   1.743   3.587
  341SOL    HW2 4030   0.740   1.666   3.492
  342SOL     OW 4031   1.726   0.135   2.385
  342SOL    HW1 4032   1.799   0.118   2.318
  342SOL    HW2 4033   1.695   0.048   2.423
  343SOL     OW 4034   0.130   1.794   3.713
  343SOL    HW1 4035   0.089   1.720   3.766
  343SOL    HW2 4036   0.194   1.845   3.771
  344SOL     OW 4037   1.280   0.927   2.534
  344SOL    HW1 4038   1.340   0.846   2.536
  344SOL    HW2 4039   1.320   0.996   2.474
  345SOL     OW 4040   0.830   1.273   3.284
  345SOL    HW1 4041   0.825   1.306   3.379
  345SOL    HW2 4042   0.744   1.292   3.238
  346SOL     OW 4043   0.672   1.616   2.016
  346SOL    HW1 4044   0.681   1.626   1.917
  346SOL    HW2 4045   0.632   1.527   2.037
  347SOL     OW 4046   1.841   0.175   2.825
  347SOL    HW1 4047   1.880   0.090   2.789
  347SOL    HW2 4048   1.743   0.177   2.806
  348SOL     OW 4049   0.263   0.326   2.582
  348SOL    HW1 4050   0.184   0.377   2.548
  348SOL    HW2 4051   0.254   0.311   2.680
  349SOL     OW 4052   0.822   1.002   3.234
  349SOL    HW1 4053   0.862   1.001   3.142
  349SOL    HW2 4054   0.832   1.094   3.274
  350SOL     OW 4055   0.916   0.910   2.153
  350SOL    HW1 4056   0.979   0.948   2.085
  350SOL    HW2 4057   0.956   0.827   2.192
  351SOL     OW 4058   0.372   1.288   3.352
  351SOL    HW1 4059   0.359   1.381   3.318
  351SOL    HW2 4060   0.288   1.236   3.339
  352SOL     OW 4061   1.039   1.098   2.558
  352SOL    HW1 4062   0.969   1.051   2.612
  352SOL    HW2 4063   1.098   1.030   2.515
  353SOL     OW 4064   1.014   0.236   2.833
  353SOL    HW1 4065   1.006   0.200   2.740
  353SOL    HW2 4066   1.012   0.160   2.898
  354SOL     OW 4067   0.590   1.487   2.353
  354SOL    HW1 4068   0.632   1.429   2.283
  354SOL    HW2 4069   0.546   1.566   2.309
  355SOL     OW 4070   1.709   0.385   3.243
  355SOL    HW1 4071   1.782   0.454   3.247
  355SOL    HW2 4072   1.737   0.310   3.184
  356SOL     OW 4073   0.255   1.348   2.152
  356SOL    HW1 4074   0.159   1.349   2.125
  356SOL    HW2 4075   0.267   1.401   2.236
  357SOL     OW 4076   0.105   1.013   3.588
  357SOL    HW1 4077   0.028   0.980   3.642
  357SOL    HW2 4078   0.190   0.983   3.630
  358SOL     OW 4079   0.672   0.203   3.351
  358SOL    HW1 4080   0.762   0.187   3.311
  358SOL    HW2 4081   0.680   0.208   3.450
  359SOL     OW 4082   0.075   0.345   1.895
  359SOL    HW1 4083  -0.017   0.317   1.866
  359SOL    HW2 4084   0.106   0.422   1.839
  360SOL     OW 4085   1.440   0.856   3.260
  360SOL    HW1 4086   1.383   0.908   3.197
  360SOL    HW2 4087   1.536   0.868   3.236
  361SOL     OW 4088   0.072   0.166   2.180
  361SOL    HW1 4089   0.055   0.249   2.126
  361SOL    HW2 4090   0.162   0.129   2.158
  362SOL     OW 4091   1.183   1.335   1.981
  362SOL    HW1 4092   1.084   1.324   1.983
  362SOL    HW2 4093   1.217   1.350   2.074
  363SOL     OW 4094   0.613   0.842   3.293
  363SOL    HW1 4095   0.669   0.923   3.276
  363SOL    HW2 4096   0.672   0.762   3.296
  364SOL     OW 4097   0.716   0.565   3.570
  364SOL    HW1 4098   0.735   0.630   3.644
  364SOL    HW2 4099   0.776   0.485   3.579
  365SOL     OW 4100   1.450   1.220   3.495
  365SOL    HW1 4101   1.441   1.210   3.594
  365SOL    HW2 4102   1.546   1.213   3.469
  366SOL     OW 4103   0.390   1.741   3.422
  366SOL    HW1 4104   0.299   1.782   3.420
  366SOL    HW2 4105   0.383   1.647   3.454
  367SOL     OW 4106   1.674   0.883   3.116
  367SOL    HW1 4107   1.647   0.794   3.079
  367SOL    HW2 4108   1.675   0.951   3.043
  368SOL     OW 4109   1.225   0.325   2.311
  368SOL    HW1 4110   1.290   0.251   2.300
  368SOL    HW2 4111   1.245   0.375   2.395
  369SOL     OW 4112   0.594   0.745   2.514
  369SOL    HW1 4113   0.644   0.830   2.495
  369SOL    HW2 4114   0.506   0.747   2.466
  370SOL     OW 4115   1.777   0.342   3.504
  370SOL    HW1 4116   1.760   0.373   3.410
  370SOL    HW2 4117   1.693   0.305   3.542
  371SOL     OW 4118   1.730   0.934   3.379
  371SOL    HW1 4119   1.768   1.025   3.394
  371SOL    HW2 4120   1.722   0.917   3.280
  372SOL     OW 4121   0.859   1.374   1.878
  372SOL    HW1 4122   0.813   1.389   1.966
  372SOL    HW2 4123   0.903   1.459   1.848
  373SOL     OW 4124   0.661   1.790   2.815
  373SOL    HW1 4125   0.615   1.878   2.802
  373SOL    HW2 4126   0.760   1.802   2.808
  374SOL     OW 4127   0.859   0.956   2.723
  374SOL    HW1 4128   0.913   0.887   2.771
  374SOL    HW2 4129   0.827   1.025   2.789
  375SOL     OW 4130   1.083   0.984   1.949
  375SOL    HW1 4131   1.060   1.037   1.867
  375SOL    HW2 4132   1.164   0.928   1.930
  376SOL     OW 4133   0.221   1.314   3.706
  376SOL    HW1 4134   0.156   1.241   3.685
  376SOL    HW2 4135   0.225   1.328   3.804
  377SOL     OW 4136   0.079   1.240   2.515
  377SOL    HW1 4137   0.078   1.193   2.603
  377SOL    HW2 4138   0.161   1.212   2.464
  378SOL     OW 4139   0.672   1.391   3.486
  378SOL    HW1 4140   0.594   1.341   3.524
  378SOL    HW2 4141   0.669   1.486   3.517
  379SOL     OW 4142   1.824   0.192   3.089
  379SOL    HW1 4143   1.820   0.102   3.133
  379SOL    HW2 4144   1.827   0.181   2.990
  380SOL     OW 4145   0.428   0.424   2.382
  380SOL    HW1 4146   0.458   0.352   2.320
  380SOL    HW2 4147   0.389   0.384   2.465
  381SOL     OW 4148   0.812   1.586   2.549
  381SOL    HW1 4149   0.844   1.596   2.455
  381SOL    HW2 4150   0.733   1.524   2.551
  382SOL     OW 4151   1.424   0.214   2.974
  382SOL    HW1 4152   1.476   0.149   3.029
  382SOL    HW2 4153   1.375   0.277   3.035
  383SOL     OW 4154   1.001   0.034   3.016
  383SOL    HW1 4155   0.938  -0.038   2.985
  383SOL    HW2 4156   1.094  -0.002   3.016
  384SOL     OW 4157   0.770   1.330   2.163
  384SOL    HW1 4158   0.724   1.243   2.180
  384SOL    HW2 4159   0.861   1.327   2.204
  385SOL     OW 4160   0.618   1.567   3.146
  385SOL    HW1 4161   0.613   1.649   3.203
  385SOL    HW2 4162   0.707   1.564   3.101
  386SOL     OW 4163   1.352   0.052   2.030
  386SOL    HW1 4164   1.387   0.011   1.946
  386SOL    HW2 4165   1.262   0.014   2.050
  387SOL     OW 4166   1.300   0.453   2.553
  387SOL    HW1 4167   1.241   0.533   2.557
  387SOL    HW2 4168   1.315   0.418   2.646
  388SOL     OW 4169   1.593   0.221   2.744
  388SOL    HW1 4170   1.509   0.220   2.798
  388SOL    HW2 4171   1.595   0.304   2.688
  389SOL     OW 4172   0.039   1.077   2.162
  389SOL    HW1 4173   0.138   1.066   2.153
  389SOL    HW2 4174  -0.001   0.991   2.194
  390SOL     OW 4175   0.875   1.646   2.199
  390SOL    HW1 4176   0.798   1.611   2.145
  390SOL    HW2 4177   0.843   1.717   2.261
  391SOL     OW 4178   0.230   0.628   3.837
  391SOL    HW1 4179   0.137   0.626   3.874
  391SOL    HW2 4180   0.231   0.589   3.745
  392SOL     OW 4181   0.225   0.275   4.720
  392SOL    HW1 4182   0.260   0.258   4.812
  392SOL    HW2 4183   0.137   0.230   4.708
  393SOL     OW 4184   0.019   0.368   4.371
  393SOL    HW1 4185  -0.063   0.411   4.410
  393SOL    HW2 4186  -0.009   0.295   4.308
  394SOL     OW 4187   0.569   1.275   4.889
  394SOL    HW1 4188   0.476   1.268   4.852
  394SOL    HW2 4189   0.580   1.364   4.933
  395SOL     OW 4190   1.555   1.511   4.427
  395SOL    HW1 4191   1.498   1.495   4.508
  395SOL    HW2 4192   1.496   1.521   4.347
  396SOL     OW 4193   1.755   0.607   3.955
  396SOL    HW1 4194   1.743   0.594   3.856
  396SOL    HW2 4195   1.725   0.526   4.004
  397SOL     OW 4196   0.768   1.144   4.747
  397SOL    HW1 4197   0.690   1.161   4.807
  397SOL    HW2 4198   0.802   1.231   4.711
  398SOL     OW 4199   0.685   1.012   4.389
  398SOL    HW1 4200   0.754   0.996   4.459
  398SOL    HW2 4201   0.612   1.069   4.427
  399SOL     OW 4202   0.335   1.435   4.785
  399SOL    HW1 4203   0.257   1.404   4.732
  399SOL    HW2 4204   0.393   1.493   4.728
  400SOL     OW 4205   1.603   0.447   4.461
  400SOL    HW1 4206   1.529   0.493   4.411
  400SOL    HW2 4207   1.654   0.515   4.514
  401SOL     OW 4208   0.231   1.713   4.207
  401SOL    HW1 4209   0.265   1.790   4.261
  401SOL    HW2 4210   0.275   1.713   4.117
  402SOL     OW 4211   0.230   1.434   4.262
  402SOL    HW1 4212   0.204   1.530   4.262
  402SOL    HW2 4213   0.159   1.380   4.307
  403SOL     OW 4214   0.240   1.091   4.610
  403SOL    HW1 4215   0.254   1.007   4.662
  403SOL    HW2 4216   0.185   1.155   4.665
  404SOL     OW 4217   0.606   0.964   3.847
  404SOL    HW1 4218   0.613   1.048   3.793
  404SOL    HW2 4219   0.652   0.977   3.935
  405SOL     OW 4220   0.122   0.643   4.287
  405SOL    HW1 4221   0.077   0.555   4.304
  405SOL    HW2 4222   0.121   0.697   4.371
  406SOL     OW 4223   0.027   1.596   3.841
  406SOL    HW1 4224   0.008   1.500   3.862
  406SOL    HW2 4225  -0.006   1.654   3.916
  407SOL     OW 4226   1.689   0.922   4.336
  407SOL    HW1 4227   1.784   0.893   4.344
  407SOL    HW2 4228   1.681   0.987   4.261
  408SOL     OW 4229   1.641   1.108   4.156
  408SOL    HW1 4230   1.727   1.110   4.104
  408SOL    HW2 4231   1.655   1.155   4.244
  409SOL     OW 4232   0.613   1.365   4.450
  409SOL    HW1 4233   0.564   1.278   4.459
  409SOL    HW2 4234   0.590   1.408   4.363
  410SOL     OW 4235   0.809   0.004   4.226
  410SOL    HW1 4236   0.849   0.095   4.217
  410SOL    HW2 4237   0.709   0.012   4.232
  411SOL     OW 4238   0.197   0.976   4.988
  411SOL    HW1 4239   0.286   0.931   4.974
  411SOL    HW2 4240   0.124   0.911   4.969
  412SOL     OW 4241   1.525   0.999   3.914
  412SOL    HW1 4242   1.462   0.923   3.927
  412SOL    HW2 4243   1.573   1.017   4.000
  413SOL     OW 4244   1.667   1.714   4.296
  413SOL    HW1 4245   1.626   1.691   4.208
  413SOL    HW2 4246   1.649   1.640   4.361
  414SOL     OW 4247   0.598   0.729   3.994
  414SOL    HW1 4248   0.622   0.798   3.926
  414SOL    HW2 4249   0.520   0.762   4.048
  415SOL     OW 4250   1.281   0.345   4.668
  415SOL    HW1 4251   1.195   0.295   4.655
  415SOL    HW2 4252   1.343   0.291   4.724
  416SOL     OW 4253   1.576   1.662   4.031
  416SOL    HW1 4254   1.665   1.708   4.034
  416SOL    HW2 4255   1.555   1.638   3.936
  417SOL     OW 4256   1.041   0.701   4.153
  417SOL    HW1 4257   1.067   0.697   4.249
  417SOL    HW2 4258   0.956   0.650   4.139
  418SOL     OW 4259   0.076   0.811   4.513
  418SOL    HW1 4260   0.175   0.799   4.522
  418SOL    HW2 4261   0.052   0.906   4.534
  419SOL     OW 4262   0.130   1.821   5.295
  419SOL    HW1 4263   0.120   1.806   5.394
  419SOL    HW2 4264   0.044   1.857   5.259
  420SOL     OW 4265   0.865   0.348   3.919
  420SOL    HW1 4266   0.924   0.411   3.870
  420SOL    HW2 4267   0.884   0.254   3.890
  421SOL     OW 4268   1.362   1.144   4.269
  421SOL    HW1 4269   1.445   1.115   4.221
  421SOL    HW2 4270   1.313   1.211   4.213
  422SOL     OW 4271   0.550   0.196   4.609
  422SOL    HW1 4272   0.545   0.191   4.709
  422SOL    HW2 4273   0.552   0.292   4.580
  423SOL     OW 4274   1.008   1.456   4.201
  423SOL    HW1 4275   0.962   1.528   4.149
  423SOL    HW2 4276   1.004   1.476   4.299
  424SOL     OW 4277   0.351   1.801   4.577
  424SOL    HW1 4278   0.401   1.715   4.583
  424SOL    HW2 4279   0.416   1.878   4.574
  425SOL     OW 4280   1.795   1.066   4.597
  425SOL    HW1 4281   1.733   1.051   4.521
  425SOL    HW2 4282   1.743   1.077   4.682
  426SOL     OW 4283   0.321   0.943   3.966
  426SOL    HW1 4284   0.403   0.982   3.924
  426SOL    HW2 4285   0.294   0.861   3.917
  427SOL     OW 4286   1.458   0.735   4.452
  427SOL    HW1 4287   1.453   0.670   4.527
  427SOL    HW2 4288   1.538   0.794   4.465
  428SOL     OW 4289   1.111   1.776   3.961
  428SOL    HW1 4290   1.051   1.714   4.011
  428SOL    HW2 4291   1.142   1.732   3.876
  429SOL     OW 4292   1.632   1.377   3.805
  429SOL    HW1 4293   1.600   1.471   3.795
  429SOL    HW2 4294   1.556   1.314   3.793
  430SOL     OW 4295   0.464   1.743   4.047
  430SOL    HW1 4296   0.497   1.782   4.133
  430SOL    HW2 4297   0.540   1.736   3.982
  431SOL     OW 4298   1.400   0.107   4.150
  431SOL    HW1 4299   1.376   0.070   4.060
  431SOL    HW2 4300   1.499   0.123   4.154
  432SOL     OW 4301   0.249   1.785   4.965
  432SOL    HW1 4302   0.306   1.720   5.015
  432SOL    HW2 4303   0.233   1.752   4.872
  433SOL     OW 4304   0.940   1.698   4.628
  433SOL    HW1 4305   1.020   1.641   4.649
  433SOL    HW2 4306   0.891   1.658   4.551
  434SOL     OW 4307   0.382   0.700   4.204
  434SOL    HW1 4308   0.427   0.610   4.201
  434SOL    HW2 4309   0.288   0.689   4.237
  435SOL     OW 4310   0.614   0.122   3.841
  435SOL    HW1 4311   0.712   0.100   3.848
  435SOL    HW2 4312   0.583   0.105   3.748
  436SOL     OW 4313   0.803   1.402   4.648
  436SOL    HW1 4314   0.893   1.416   4.606
  436SOL    HW2 4315   0.732   1.404   4.577
  437SOL     OW 4316   0.922   0.503   4.623
  437SOL    HW1 4317   0.897   0.494   4.527
  437SOL    HW2 4318   0.970   0.421   4.654
  438SOL     OW 4319   0.539   0.064   4.236
  438SOL    HW1 4320   0.458   0.065   4.294
  438SOL    HW2 4321   0.542   0.147   4.181
  439SOL     OW 4322   1.434   1.188   3.765
  439SOL    HW1 4323   1.466   1.112   3.822
  439SOL    HW2 4324   1.342   1.215   3.795
  440SOL     OW 4325   0.297   0.035   3.895
  440SOL    HW1 4326   0.346   0.119   3.874
  440SOL    HW2 4327   0.359  -0.030   3.940
  441SOL     OW 4328   0.935   0.236   4.204
  441SOL    HW1 4329   0.887   0.277   4.126
  441SOL    HW2 4330   1.034   0.234   4.185
  442SOL     OW 4331   1.227   1.570   4.517
  442SOL    HW1 4332   1.248   1.644   4.452
  442SOL    HW2 4333   1.295   1.570   4.590
  443SOL     OW 4334   0.459   1.152   4.465
  443SOL    HW1 4335   0.388   1.125   4.530
  443SOL    HW2 4336   0.433   1.124   4.372
  444SOL     OW 4337   1.271   1.797   4.315
  444SOL    HW1 4338   1.315   1.861   4.251
  444SOL    HW2 4339   1.221   1.849   4.385
  445SOL     OW 4340   1.032   0.549   3.740
  445SOL    HW1 4341   0.991   0.631   3.701
  445SOL    HW2 4342   1.096   0.575   3.813
  446SOL     OW 4343   0.866   0.454   4.366
  446SOL    HW1 4344   0.834   0.526   4.304
  446SOL    HW2 4345   0.890   0.373   4.313
  447SOL     OW 4346   1.017   0.039   4.477
  447SOL    HW1 4347   0.945   0.044   4.408
  447SOL    HW2 4348   0.993  -0.030   4.546
  448SOL     OW 4349   1.429   1.173   4.591
  448SOL    HW1 4350   1.374   1.089   4.584
  448SOL    HW2 4351   1.455   1.202   4.499
  449SOL     OW 4352   1.466   0.590   4.716
  449SOL    HW1 4353   1.436   0.495   4.723
  449SOL    HW2 4354   1.539   0.606   4.782
  450SOL     OW 4355   1.857   0.833   4.101
  450SOL    HW1 4356   1.899   0.769   4.165
  450SOL    HW2 4357   1.819   0.782   4.023
  451SOL     OW 4358   0.488   1.385   3.898
  451SOL    HW1 4359   0.401   1.370   3.945
  451SOL    HW2 4360   0.471   1.411   3.803
  452SOL     OW 4361   1.664   1.280   4.381
  452SOL    HW1 4362   1.763   1.288   4.395
  452SOL    HW2 4363   1.619   1.364   4.412
  453SOL     OW 4364   1.390   0.575   3.802
  453SOL    HW1 4365   1.336   0.554   3.883
  453SOL    HW2 4366   1.481   0.534   3.811
  454SOL     OW 4367   0.527   0.256   4.052
  454SOL    HW1 4368   0.554   0.197   3.977
  454SOL    HW2 4369   0.527   0.351   4.021
  455SOL     OW 4370   1.111   1.195   4.824
  455SOL    HW1 4371   1.071   1.239   4.905
  455SOL    HW2 4372   1.070   1.232   4.741
  456SOL     OW 4373   1.638   1.099   4.803
  456SOL    HW1 4374   1.643   1.180   4.862
  456SOL    HW2 4375   1.552   1.101   4.752
  457SOL     OW 4376   0.705   1.050   4.092
  457SOL    HW1 4377   0.691   1.057   4.191
  457SOL    HW2 4378   0.789   0.999   4.074
  458SOL     OW 4379   0.410   0.813   4.975
  458SOL    HW1 4380   0.496   0.825   5.025
  458SOL    HW2 4381   0.368   0.726   5.002
  459SOL     OW 4382   0.367   1.100   4.225
  459SOL    HW1 4383   0.360   1.183   4.169
  459SOL    HW2 4384   0.371   1.020   4.165
  460SOL     OW 4385   0.566   0.537   4.589
  460SOL    HW1 4386   0.578   0.603   4.515
  460SOL    HW2 4387   0.612   0.571   4.672
  461SOL     OW 4388   1.252   1.348   4.112
  461SOL    HW1 4389   1.302   1.425   4.152
  461SOL    HW2 4390   1.157   1.350   4.144
  462SOL     OW 4391   1.582   0.639   4.196
  462SOL    HW1 4392   1.551   0.700   4.269
  462SOL    HW2 4393   1.632   0.691   4.127
  463SOL     OW 4394   0.573   0.870   4.753
  463SOL    HW1 4395   0.617   0.959   4.744
  463SOL    HW2 4396   0.510   0.870   4.830
  464SOL     OW 4397   1.209   0.525   3.999
  464SOL    HW1 4398   1.222   0.441   4.053
  464SOL    HW2 4399   1.180   0.599   4.059
  465SOL     OW 4400   0.307   0.213   4.955
  465SOL    HW1 4401   0.284   0.250   5.045
  465SOL    HW2 4402   0.277   0.118   4.949
  466SOL     OW 4403   0.037   1.310   5.006
  466SOL    HW1 4404   0.090   1.261   5.074
  466SOL    HW2 4405   0.059   1.408   5.011
  467SOL     OW 4406   0.732   0.634   4.788
  467SOL    HW1 4407   0.791   0.608   4.712
  467SOL    HW2 4408   0.704   0.730   4.777
  468SOL     OW 4409   0.307   0.063   4.342
  468SOL    HW1 4410   0.296   0.157   4.375
  468SOL    HW2 4411   0.302   0.000   4.419
  469SOL     OW 4412   1.622   0.367   4.098
  469SOL    HW1 4413   1.624   0.291   4.162
  469SOL    HW2 4414   1.574   0.444   4.138
  470SOL     OW 4415   1.023   0.766   4.690
  470SOL    HW1 4416   1.038   0.787   4.786
  470SOL    HW2 4417   0.993   0.671   4.681
  471SOL     OW 4418   1.540   0.274   3.849
  471SOL    HW1 4419   1.479   0.199   3.872
  471SOL    HW2 4420   1.562   0.326   3.932
  472SOL     OW 4421   1.303   0.838   3.766
  472SOL    HW1 4422   1.337   0.745   3.781
  472SOL    HW2 4423   1.321   0.865   3.671
  473SOL     OW 4424   1.068   1.333   4.573
  473SOL    HW1 4425   1.075   1.249   4.518
  473SOL    HW2 4426   1.130   1.402   4.537
  474SOL     OW 4427   0.319   0.810   4.673
  474SOL    HW1 4428   0.412   0.846   4.678
  474SOL    HW2 4429   0.313   0.725   4.725
  475SOL     OW 4430   0.339   0.509   4.730
  475SOL    HW1 4431   0.287   0.426   4.713
  475SOL    HW2 4432   0.416   0.514   4.666
  476SOL     OW 4433   1.160   0.207   5.201
  476SOL    HW1 4434   1.160   0.271   5.278
  476SOL    HW2 4435   1.188   0.255   5.118
  477SOL     OW 4436   0.008   1.326   3.924
  477SOL    HW1 4437  -0.085   1.347   3.893
  477SOL    HW2 4438   0.018   1.227   3.937
  478SOL     OW 4439   0.088   1.801   4.651
  478SOL    HW1 4440   0.046   1.715   4.624
  478SOL    HW2 4441   0.182   1.804   4.617
  479SOL     OW 4442   0.504   1.568   4.634
  479SOL    HW1 4443   0.570   1.642   4.643
  479SOL    HW2 4444   0.548   1.489   4.592
  480SOL     OW 4445   1.002   0.796   4.962
  480SOL    HW1 4446   1.043   0.764   5.048
  480SOL    HW2 4447   0.906   0.769   4.959
  481SOL     OW 4448   0.040   0.544   4.838
  481SOL    HW1 4449   0.125   0.511   4.797
  481SOL    HW2 4450   0.053   0.559   4.936
  482SOL     OW 4451   0.815   0.572   4.049
  482SOL    HW1 4452   0.822   0.483   4.003
  482SOL    HW2 4453   0.721   0.606   4.041
  483SOL     OW 4454   1.657   0.604   4.930
  483SOL    HW1 4455   1.619   0.535   4.992
  483SOL    HW2 4456   1.739   0.568   4.886
  484SOL     OW 4457   0.671   0.464   4.993
  484SOL    HW1 4458   0.637   0.375   4.963
  484SOL    HW2 4459   0.697   0.518   4.913
  485SOL     OW 4460   0.473   0.500   3.915
  485SOL    HW1 4461   0.534   0.580   3.919
  485SOL    HW2 4462   0.378   0.531   3.922
  486SOL     OW 4463   1.347   1.059   4.958
  486SOL    HW1 4464   1.371   0.996   4.884
  486SOL    HW2 4465   1.257   1.099   4.940
  487SOL     OW 4466   1.302   0.855   4.033
  487SOL    HW1 4467   1.216   0.824   4.075
  487SOL    HW2 4468   1.298   0.841   3.934
  488SOL     OW 4469   1.759   1.747   4.878
  488SOL    HW1 4470   1.820   1.777   4.805
  488SOL    HW2 4471   1.721   1.658   4.856
  489SOL     OW 4472   0.083   1.258   4.746
  489SOL    HW1 4473   0.078   1.257   4.846
  489SOL    HW2 4474   0.000   1.217   4.708
  490SOL     OW 4475   1.726   0.135   4.247
  490SOL    HW1 4476   1.799   0.118   4.180
  490SOL    HW2 4477   1.695   0.048   4.285
  491SOL     OW 4478   1.388   1.573   4.201
  491SOL    HW1 4479   1.455   1.585   4.127
  491SOL    HW2 4480   1.348   1.662   4.224
  492SOL     OW 4481   0.672   1.616   3.878
  492SOL    HW1 4482   0.681   1.626   3.779
  492SOL    HW2 4483   0.632   1.527   3.899
  493SOL     OW 4484   1.650   1.720   5.118
  493SOL    HW1 4485   1.703   1.730   5.034
  493SOL    HW2 4486   1.623   1.810   5.152
  494SOL     OW 4487   1.841   0.175   4.687
  494SOL    HW1 4488   1.880   0.090   4.651
  494SOL    HW2 4489   1.743   0.177   4.668
  495SOL     OW 4490   0.263   0.326   4.444
  495SOL    HW1 4491   0.184   0.377   4.410
  495SOL    HW2 4492   0.254   0.311   4.542
  496SOL     OW 4493   1.194   1.612   3.755
  496SOL    HW1 4494   1.200   1.519   3.792
  496SOL    HW2 4495   1.135   1.612   3.675
  497SOL     OW 4496   0.822   1.002   5.096
  497SOL    HW1 4497   0.862   1.001   5.004
  497SOL    HW2 4498   0.832   1.094   5.136
  498SOL     OW 4499   0.916   0.910   4.015
  498SOL    HW1 4500   0.979   0.948   3.947
  498SOL    HW2 4501   0.956   0.827   4.054
  499SOL     OW 4502   1.014   0.236   4.695
  499SOL    HW1 4503   1.006   0.200   4.602
  499SOL    HW2 4504   1.012   0.160   4.760
  500SOL     OW 4505   0.590   1.487   4.215
  500SOL    HW1 4506   0.632   1.429   4.145
  500SOL    HW2 4507   0.546   1.566   4.171
  501SOL     OW 4508   1.709   0.385   5.105
  501SOL    HW1 4509   1.782   0.454   5.109
  501SOL    HW2 4510   1.737   0.310   5.046
  502SOL     OW 4511   0.255   1.348   4.014
  502SOL    HW1 4512   0.159   1.349   3.987
  502SOL    HW2 4513   0.267   1.401   4.098
  503SOL     OW 4514   0.075   0.345   3.757
  503SOL    HW1 4515  -0.017   0.317   3.728
  503SOL    HW2 4516   0.106   0.422   3.701
  504SOL     OW 4517   0.072   0.166   4.042
  504SOL    HW1 4518   0.055   0.249   3.988
  504SOL    HW2 4519   0.162   0.129   4.020
  505SOL     OW 4520   1.183   1.335   3.843
  505SOL    HW1 4521   1.084   1.324   3.845
  505SOL    HW2 4522   1.217   1.350   3.936
  506SOL     OW 4523   1.493   1.767   4.683
  506SOL    HW1 4524   1.526   1.831   4.614
  506SOL    HW2 4525   1.559   1.761   4.758
  507SOL     OW 4526   1.674   0.883   4.978
  507SOL    HW1 4527   1.647   0.794   4.941
  507SOL    HW2 4528   1.675   0.951   4.905
  508SOL     OW 4529   1.225   0.325   4.173
  508SOL    HW1 4530   1.290   0.251   4.162
  508SOL    HW2 4531   1.245   0.375   4.257
  509SOL     OW 4532   0.594   0.745   4.376
  509SOL    HW1 4533   0.644   0.830   4.357
  509SOL    HW2 4534   0.506   0.747   4.328
  510SOL     OW 4535   1.730   0.934   5.241
  510SOL    HW1 4536   1.768   1.025   5.256
  510SOL    HW2 4537   1.722   0.917   5.142
  511SOL     OW 4538   0.859   1.374   3.740
  511SOL    HW1 4539   0.813   1.389   3.828
  511SOL    HW2 4540   0.903   1.459   3.710
  512SOL     OW 4541   0.661   1.790   4.677
  512SOL    HW1 4542   0.615   1.878   4.664
  512SOL    HW2 4543   0.760   1.802   4.670
  513SOL     OW 4544   0.859   0.956   4.585
  513SOL    HW1 4545   0.913   0.887   4.633
  513SOL    HW2 4546   0.827   1.025   4.651
  514SOL     OW 4547   1.083   0.984   3.811
  514SOL    HW1 4548   1.060   1.037   3.729
  514SOL    HW2 4549   1.164   0.928   3.792
  515SOL     OW 4550   1.861   1.569   4.575
  515SOL    HW1 4551   1.790   1.557   4.505
  515SOL    HW2 4552   1.862   1.490   4.635
  516SOL     OW 4553   0.079   1.240   4.377
  516SOL    HW1 4554   0.078   1.193   4.465
  516SOL    HW2 4555   0.161   1.212   4.326
  517SOL     OW 4556   1.824   0.192   4.951
  517SOL    HW1 4557   1.820   0.102   4.995
  517SOL    HW2 4558   1.827   0.181   4.852
  518SOL     OW 4559   0.428   0.424   4.244
  518SOL    HW1 4560   0.458   0.352   4.182
  518SOL    HW2 4561   0.389   0.384   4.327
  519SOL     OW 4562   1.705   1.487   4.828
  519SOL    HW1 4563   1.612   1.462   4.801
  519SOL    HW2 4564   1.731   1.437   4.910
  520SOL     OW 4565   0.812   1.586   4.411
  520SOL    HW1 4566   0.844   1.596   4.317
  520SOL    HW2 4567   0.733   1.524   4.413
  521SOL     OW 4568   1.424   0.214   4.836
  521SOL    HW1 4569   1.476   0.149   4.891
  521SOL    HW2 4570   1.375   0.277   4.897
  522SOL     OW 4571   1.001   0.034   4.878
  522SOL    HW1 4572   0.938  -0.038   4.847
  522SOL    HW2 4573   1.094  -0.002   4.878
  523SOL     OW 4574   0.770   1.330   4.025
  523SOL    HW1 4575   0.724   1.243   4.042
  523SOL    HW2 4576   0.861   1.327   4.066
  524SOL     OW 4577   1.352   0.052   3.892
  524SOL    HW1 4578   1.387   0.011   3.808
  524SOL    HW2 4579   1.262   0.014   3.912
  525SOL     OW 4580   1.300   0.453   4.415
  525SOL    HW1 4581   1.241   0.533   4.419
  525SOL    HW2 4582   1.315   0.418   4.508
  526SOL     OW 4583   1.593   0.221   4.606
  526SOL    HW1 4584   1.509   0.220   4.660
  526SOL    HW2 4585   1.595   0.304   4.550
  527SOL     OW 4586   0.039   1.077   4.024
  527SOL    HW1 4587   0.138   1.066   4.015
  527SOL    HW2 4588  -0.001   0.991   4.056
  528SOL     OW 4589   0.875   1.646   4.061
  528SOL    HW1 4590   0.798   1.611   4.007
  528SOL    HW2 4591   0.843   1.717   4.123
  529SOL     OW 4592   0.230   2.490   0.113
  529SOL    HW1 4593   0.137   2.488   0.150
  529SOL    HW2 4594   0.231   2.451   0.021
  530SOL     OW 4595   0.225   2.137   0.996
  530SOL    HW1 4596   0.260   2.120   1.088
  530SOL    HW2 4597   0.137   2.092   0.984
  531SOL     OW 4598   0.019   2.230   0.647
  531SOL    HW1 4599  -0.063   2.273   0.686
  531SOL    HW2 4600  -0.009   2.157   0.584
  532SOL     OW 4601   0.569   3.137   1.165
  532SOL    HW1 4602   0.476   3.130   1.128
  532SOL    HW2 4603   0.580   3.226   1.209
  533SOL     OW 4604   1.555   3.373   0.703
  533SOL    HW1 4605   1.498   3.357   0.784
  533SOL    HW2 4606   1.496   3.383   0.623
  534SOL     OW 4607   1.135   2.565   0.717
  534SOL    HW1 4608   1.192   2.643   0.692
  534SOL    HW2 4609   1.075   2.591   0.793
  535SOL     OW 4610   1.755   2.469   0.231
  535SOL    HW1 4611   1.743   2.456   0.132
  535SOL    HW2 4612   1.725   2.388   0.280
  536SOL     OW 4613   0.768   3.006   1.023
  536SOL    HW1 4614   0.690   3.023   1.083
  536SOL    HW2 4615   0.802   3.093   0.987
  537SOL     OW 4616   0.685   2.874   0.665
  537SOL    HW1 4617   0.754   2.858   0.735
  537SOL    HW2 4618   0.612   2.931   0.703
  538SOL     OW 4619   0.686   3.023   1.803
  538SOL    HW1 4620   0.746   3.102   1.817
  538SOL    HW2 4621   0.600   3.054   1.762
  539SOL     OW 4622   0.335   3.297   1.061
  539SOL    HW1 4623   0.257   3.266   1.008
  539SOL    HW2 4624   0.393   3.355   1.004
  540SOL     OW 4625   0.438   2.254   1.499
  540SOL    HW1 4626   0.520   2.198   1.508
  540SOL    HW2 4627   0.357   2.196   1.503
  541SOL     OW 4628   0.231   3.575   0.483
  541SOL    HW1 4629   0.265   3.652   0.537
  541SOL    HW2 4630   0.275   3.575   0.393
  542SOL     OW 4631   0.230   3.296   0.538
  542SOL    HW1 4632   0.204   3.392   0.538
  542SOL    HW2 4633   0.159   3.242   0.583
  543SOL     OW 4634   0.240   2.953   0.886
  543SOL    HW1 4635   0.254   2.869   0.938
  543SOL    HW2 4636   0.185   3.017   0.941
  544SOL     OW 4637   0.620   3.648   1.439
  544SOL    HW1 4638   0.528   3.631   1.474
  544SOL    HW2 4639   0.648   3.740   1.465
  545SOL     OW 4640   0.606   2.826   0.123
  545SOL    HW1 4641   0.613   2.910   0.069
  545SOL    HW2 4642   0.652   2.839   0.211
  546SOL     OW 4643   0.122   2.505   0.563
  546SOL    HW1 4644   0.077   2.417   0.580
  546SOL    HW2 4645   0.121   2.559   0.647
  547SOL     OW 4646   1.842   3.629   0.359
  547SOL    HW1 4647   1.896   3.600   0.439
  547SOL    HW2 4648   1.872   3.719   0.330
  548SOL     OW 4649   0.027   3.458   0.117
  548SOL    HW1 4650   0.008   3.362   0.138
  548SOL    HW2 4651  -0.006   3.516   0.192
  549SOL     OW 4652   1.689   2.784   0.612
  549SOL    HW1 4653   1.784   2.755   0.620
  549SOL    HW2 4654   1.681   2.849   0.537
  550SOL     OW 4655   1.641   2.970   0.432
  550SOL    HW1 4656   1.727   2.972   0.380
  550SOL    HW2 4657   1.655   3.017   0.520
  551SOL     OW 4658   0.113   2.599   1.597
  551SOL    HW1 4659   0.201   2.586   1.642
  551SOL    HW2 4660   0.100   2.696   1.575
  552SOL     OW 4661   0.613   3.227   0.726
  552SOL    HW1 4662   0.564   3.140   0.735
  552SOL    HW2 4663   0.590   3.270   0.639
  553SOL     OW 4664   0.809   1.866   0.502
  553SOL    HW1 4665   0.849   1.957   0.493
  553SOL    HW2 4666   0.709   1.874   0.508
  554SOL     OW 4667   0.197   2.838   1.264
  554SOL    HW1 4668   0.286   2.793   1.250
  554SOL    HW2 4669   0.124   2.773   1.245
  555SOL     OW 4670   1.525   2.861   0.190
  555SOL    HW1 4671   1.462   2.785   0.203
  555SOL    HW2 4672   1.573   2.879   0.276
  556SOL     OW 4673   1.187   3.654   1.616
  556SOL    HW1 4674   1.211   3.714   1.540
  556SOL    HW2 4675   1.194   3.559   1.586
  557SOL     OW 4676   1.466   3.279   0.953
  557SOL    HW1 4677   1.407   3.285   1.033
  557SOL    HW2 4678   1.451   3.191   0.907
  558SOL     OW 4679   1.667   3.576   0.572
  558SOL    HW1 4680   1.626   3.553   0.484
  558SOL    HW2 4681   1.649   3.502   0.637
  559SOL     OW 4682   0.598   2.591   0.270
  559SOL    HW1 4683   0.622   2.660   0.202
  559SOL    HW2 4684   0.520   2.624   0.324
  560SOL     OW 4685   1.576   3.524   0.307
  560SOL    HW1 4686   1.665   3.570   0.310
  560SOL    HW2 4687   1.555   3.500   0.212
  561SOL     OW 4688   0.807   2.467   1.465
  561SOL    HW1 4689   0.760   2.464   1.554
  561SOL    HW2 4690   0.756   2.412   1.399
  562SOL     OW 4691   1.041   2.563   0.429
  562SOL    HW1 4692   1.067   2.559   0.525
  562SOL    HW2 4693   0.956   2.512   0.415
  563SOL     OW 4694   0.076   2.673   0.789
  563SOL    HW1 4695   0.175   2.661   0.798
  563SOL    HW2 4696   0.052   2.768   0.810
  564SOL     OW 4697   0.130   3.683   1.571
  564SOL    HW1 4698   0.120   3.668   1.670
  564SOL    HW2 4699   0.044   3.719   1.535
  565SOL     OW 4700   0.865   2.210   0.195
  565SOL    HW1 4701   0.924   2.273   0.146
  565SOL    HW2 4702   0.884   2.116   0.166
  566SOL     OW 4703   1.362   3.006   0.545
  566SOL    HW1 4704   1.445   2.977   0.497
  566SOL    HW2 4705   1.313   3.073   0.489
  567SOL     OW 4706   0.550   2.058   0.885
  567SOL    HW1 4707   0.545   2.053   0.985
  567SOL    HW2 4708   0.552   2.154   0.856
  568SOL     OW 4709   1.008   3.318   0.477
  568SOL    HW1 4710   0.962   3.390   0.425
  568SOL    HW2 4711   1.004   3.338   0.575
  569SOL     OW 4712   0.351   3.663   0.853
  569SOL    HW1 4713   0.401   3.577   0.859
  569SOL    HW2 4714   0.416   3.740   0.850
  570SOL     OW 4715   0.321   2.805   0.242
  570SOL    HW1 4716   0.403   2.844   0.200
  570SOL    HW2 4717   0.294   2.723   0.193
  571SOL     OW 4718   0.461   3.128   1.727
  571SOL    HW1 4719   0.411   3.129   1.641
  571SOL    HW2 4720   0.398   3.110   1.803
  572SOL     OW 4721   1.111   3.638   0.237
  572SOL    HW1 4722   1.051   3.576   0.287
  572SOL    HW2 4723   1.142   3.594   0.152
  573SOL     OW 4724   0.202   2.147   1.498
  573SOL    HW1 4725   0.122   2.207   1.485
  573SOL    HW2 4726   0.192   2.098   1.584
  574SOL     OW 4727   1.632   3.239   0.081
  574SOL    HW1 4728   1.600   3.333   0.071
  574SOL    HW2 4729   1.556   3.176   0.069
  575SOL     OW 4730   0.464   3.605   0.323
  575SOL    HW1 4731   0.497   3.644   0.409
  575SOL    HW2 4732   0.540   3.598   0.258
  576SOL     OW 4733   1.400   1.969   0.426
  576SOL    HW1 4734   1.376   1.932   0.336
  576SOL    HW2 4735   1.499   1.985   0.430
  577SOL     OW 4736   0.249   3.647   1.241
  577SOL    HW1 4737   0.306   3.582   1.291
  577SOL    HW2 4738   0.233   3.614   1.148
  578SOL     OW 4739   0.940   3.560   0.904
  578SOL    HW1 4740   1.020   3.503   0.925
  578SOL    HW2 4741   0.891   3.520   0.827
  579SOL     OW 4742   0.382   2.562   0.480
  579SOL    HW1 4743   0.427   2.472   0.477
  579SOL    HW2 4744   0.288   2.551   0.513
  580SOL     OW 4745   0.614   1.984   0.117
  580SOL    HW1 4746   0.712   1.962   0.124
  580SOL    HW2 4747   0.583   1.967   0.024
  581SOL     OW 4748   0.781   2.126   1.749
  581SOL    HW1 4749   0.848   2.065   1.792
  581SOL    HW2 4750   0.708   2.145   1.814
  582SOL     OW 4751   0.888   3.376   1.195
  582SOL    HW1 4752   0.865   3.351   1.101
  582SOL    HW2 4753   0.949   3.307   1.234
  583SOL     OW 4754   0.803   3.264   0.924
  583SOL    HW1 4755   0.893   3.278   0.882
  583SOL    HW2 4756   0.732   3.266   0.853
  584SOL     OW 4757   0.922   2.365   0.899
  584SOL    HW1 4758   0.897   2.356   0.803
  584SOL    HW2 4759   0.970   2.283   0.930
  585SOL     OW 4760   0.539   1.926   0.512
  585SOL    HW1 4761   0.458   1.927   0.570
  585SOL    HW2 4762   0.542   2.009   0.457
  586SOL     OW 4763   1.434   3.050   0.041
  586SOL    HW1 4764   1.466   2.974   0.098
  586SOL    HW2 4765   1.342   3.077   0.071
  587SOL     OW 4766   0.297   1.897   0.171
  587SOL    HW1 4767   0.346   1.981   0.150
  587SOL    HW2 4768   0.359   1.832   0.216
  588SOL     OW 4769   0.935   2.098   0.480
  588SOL    HW1 4770   0.887   2.139   0.402
  588SOL    HW2 4771   1.034   2.096   0.461
  589SOL     OW 4772   1.227   3.432   0.793
  589SOL    HW1 4773   1.248   3.506   0.728
  589SOL    HW2 4774   1.295   3.432   0.866
  590SOL     OW 4775   0.459   3.014   0.741
  590SOL    HW1 4776   0.388   2.987   0.806
  590SOL    HW2 4777   0.433   2.986   0.648
  591SOL     OW 4778   1.271   3.659   0.591
  591SOL    HW1 4779   1.315   3.723   0.527
  591SOL    HW2 4780   1.221   3.711   0.661
  592SOL     OW 4781   1.032   2.411   0.016
  592SOL    HW1 4782   0.991   2.493  -0.023
  592SOL    HW2 4783   1.096   2.437   0.089
  593SOL     OW 4784   0.078   2.418   1.386
  593SOL    HW1 4785   0.170   2.417   1.345
  593SOL    HW2 4786   0.072   2.492   1.453
  594SOL     OW 4787   0.561   2.084   1.147
  594SOL    HW1 4788   0.599   2.000   1.184
  594SOL    HW2 4789   0.473   2.103   1.191
  595SOL     OW 4790   0.866   2.316   0.642
  595SOL    HW1 4791   0.834   2.388   0.580
  595SOL    HW2 4792   0.890   2.235   0.589
  596SOL     OW 4793   1.017   1.901   0.753
  596SOL    HW1 4794   0.945   1.906   0.684
  596SOL    HW2 4795   0.993   1.832   0.822
  597SOL     OW 4796   1.429   3.035   0.867
  597SOL    HW1 4797   1.374   2.951   0.860
  597SOL    HW2 4798   1.455   3.064   0.775
  598SOL     OW 4799   1.857   2.695   0.377
  598SOL    HW1 4800   1.899   2.631   0.441
  598SOL    HW2 4801   1.819   2.644   0.299
  599SOL     OW 4802   0.488   3.247   0.174
  599SOL    HW1 4803   0.401   3.232   0.221
  599SOL    HW2 4804   0.471   3.273   0.079
  600SOL     OW 4805   1.664   3.142   0.657
  600SOL    HW1 4806   1.763   3.150   0.671
  600SOL    HW2 4807   1.619   3.226   0.688
  601SOL     OW 4808   1.390   2.437   0.078
  601SOL    HW1 4809   1.336   2.416   0.159
  601SOL    HW2 4810   1.481   2.396   0.087
  602SOL     OW 4811   0.527   2.118   0.328
  602SOL    HW1 4812   0.554   2.059   0.253
  602SOL    HW2 4813   0.527   2.213   0.297
  603SOL     OW 4814   1.111   3.057   1.100
  603SOL    HW1 4815   1.071   3.101   1.181
  603SOL    HW2 4816   1.070   3.094   1.017
  604SOL     OW 4817   0.705   2.912   0.368
  604SOL    HW1 4818   0.691   2.919   0.467
  604SOL    HW2 4819   0.789   2.861   0.350
  605SOL     OW 4820   0.410   2.675   1.251
  605SOL    HW1 4821   0.496   2.687   1.301
  605SOL    HW2 4822   0.368   2.588   1.278
  606SOL     OW 4823   0.064   3.426   1.331
  606SOL    HW1 4824   0.018   3.508   1.297
  606SOL    HW2 4825   0.162   3.445   1.340
  607SOL     OW 4826   0.367   2.962   0.501
  607SOL    HW1 4827   0.360   3.045   0.445
  607SOL    HW2 4828   0.371   2.882   0.441
  608SOL     OW 4829   0.566   2.399   0.865
  608SOL    HW1 4830   0.578   2.465   0.791
  608SOL    HW2 4831   0.612   2.433   0.948
  609SOL     OW 4832   1.252   3.210   0.388
  609SOL    HW1 4833   1.302   3.287   0.428
  609SOL    HW2 4834   1.157   3.212   0.420
  610SOL     OW 4835   1.272   3.307   1.142
  610SOL    HW1 4836   1.319   3.320   1.229
  610SOL    HW2 4837   1.206   3.233   1.151
  611SOL     OW 4838   1.582   2.501   0.472
  611SOL    HW1 4839   1.551   2.562   0.545
  611SOL    HW2 4840   1.632   2.553   0.403
  612SOL     OW 4841   0.354   3.372   1.329
  612SOL    HW1 4842   0.333   3.328   1.242
  612SOL    HW2 4843   0.451   3.398   1.332
  613SOL     OW 4844   0.402   2.613   1.598
  613SOL    HW1 4845   0.470   2.668   1.551
  613SOL    HW2 4846   0.442   2.525   1.625
  614SOL     OW 4847   0.573   2.732   1.029
  614SOL    HW1 4848   0.617   2.821   1.020
  614SOL    HW2 4849   0.510   2.732   1.106
  615SOL     OW 4850   1.209   2.387   0.275
  615SOL    HW1 4851   1.222   2.303   0.329
  615SOL    HW2 4852   1.180   2.461   0.335
  616SOL     OW 4853   0.307   2.075   1.231
  616SOL    HW1 4854   0.284   2.112   1.321
  616SOL    HW2 4855   0.277   1.980   1.225
  617SOL     OW 4856   0.037   3.172   1.282
  617SOL    HW1 4857   0.090   3.123   1.350
  617SOL    HW2 4858   0.059   3.270   1.287
  618SOL     OW 4859   0.732   2.496   1.064
  618SOL    HW1 4860   0.791   2.470   0.988
  618SOL    HW2 4861   0.704   2.592   1.053
  619SOL     OW 4862   0.307   1.925   0.618
  619SOL    HW1 4863   0.296   2.019   0.651
  619SOL    HW2 4864   0.302   1.862   0.695
  620SOL     OW 4865   1.622   2.229   0.374
  620SOL    HW1 4866   1.624   2.153   0.438
  620SOL    HW2 4867   1.574   2.306   0.414
  621SOL     OW 4868   1.023   2.628   0.966
  621SOL    HW1 4869   1.038   2.649   1.062
  621SOL    HW2 4870   0.993   2.533   0.957
  622SOL     OW 4871   0.350   2.760   1.804
  622SOL    HW1 4872   0.426   2.804   1.852
  622SOL    HW2 4873   0.385   2.713   1.722
  623SOL     OW 4874   1.540   2.136   0.125
  623SOL    HW1 4875   1.479   2.061   0.148
  623SOL    HW2 4876   1.562   2.188   0.208
  624SOL     OW 4877   1.303   2.700   0.042
  624SOL    HW1 4878   1.337   2.607   0.057
  624SOL    HW2 4879   1.321   2.727  -0.053
  625SOL     OW 4880   1.068   3.195   0.849
  625SOL    HW1 4881   1.075   3.111   0.794
  625SOL    HW2 4882   1.130   3.264   0.813
  626SOL     OW 4883   0.319   2.672   0.949
  626SOL    HW1 4884   0.412   2.708   0.954
  626SOL    HW2 4885   0.313   2.587   1.001
  627SOL     OW 4886   0.339   2.371   1.006
  627SOL    HW1 4887   0.287   2.288   0.989
  627SOL    HW2 4888   0.416   2.376   0.942
  628SOL     OW 4889   0.008   3.188   0.200
  628SOL    HW1 4890  -0.085   3.209   0.169
  628SOL    HW2 4891   0.018   3.089   0.213
  629SOL     OW 4892   0.088   3.663   0.927
  629SOL    HW1 4893   0.046   3.577   0.900
  629SOL    HW2 4894   0.182   3.666   0.893
  630SOL     OW 4895   0.504   3.430   0.910
  630SOL    HW1 4896   0.570   3.504   0.919
  630SOL    HW2 4897   0.548   3.351   0.868
  631SOL     OW 4898   0.040   2.406   1.114
  631SOL    HW1 4899   0.125   2.373   1.073
  631SOL    HW2 4900   0.053   2.421   1.212
  632SOL     OW 4901   0.189   2.382   1.722
  632SOL    HW1 4902   0.248   2.342   1.652
  632SOL    HW2 4903   0.131   2.453   1.681
  633SOL     OW 4904   0.815   2.434   0.325
  633SOL    HW1 4905   0.822   2.345   0.279
  633SOL    HW2 4906   0.721   2.468   0.317
  634SOL     OW 4907   0.252   3.426   1.744
  634SOL    HW1 4908   0.222   3.483   1.820
  634SOL    HW2 4909   0.245   3.329   1.770
  635SOL     OW 4910   0.671   2.326   1.269
  635SOL    HW1 4911   0.637   2.237   1.239
  635SOL    HW2 4912   0.697   2.380   1.189
  636SOL     OW 4913   0.930   3.540   1.465
  636SOL    HW1 4914   0.906   3.522   1.370
  636SOL    HW2 4915   0.960   3.634   1.475
  637SOL     OW 4916   0.473   2.362   0.191
  637SOL    HW1 4917   0.534   2.442   0.195
  637SOL    HW2 4918   0.378   2.393   0.198
  638SOL     OW 4919   0.159   2.999   1.466
  638SOL    HW1 4920   0.181   2.938   1.542
  638SOL    HW2 4921   0.169   2.950   1.380
  639SOL     OW 4922   1.302   2.717   0.309
  639SOL    HW1 4923   1.216   2.686   0.351
  639SOL    HW2 4924   1.298   2.703   0.210
  640SOL     OW 4925   1.252   3.593   1.128
  640SOL    HW1 4926   1.336   3.598   1.074
  640SOL    HW2 4927   1.229   3.497   1.146
  641SOL     OW 4928   0.083   3.120   1.022
  641SOL    HW1 4929   0.078   3.119   1.122
  641SOL    HW2 4930   0.000   3.079   0.984
  642SOL     OW 4931   0.688   3.524   1.716
  642SOL    HW1 4932   0.632   3.605   1.725
  642SOL    HW2 4933   0.740   3.528   1.630
  643SOL     OW 4934   0.903   1.948   0.133
  643SOL    HW1 4935   0.954   1.949   0.047
  643SOL    HW2 4936   0.959   1.906   0.204
  644SOL     OW 4937   1.726   1.997   0.523
  644SOL    HW1 4938   1.799   1.980   0.456
  644SOL    HW2 4939   1.695   1.910   0.561
  645SOL     OW 4940   1.388   3.435   0.477
  645SOL    HW1 4941   1.455   3.447   0.403
  645SOL    HW2 4942   1.348   3.524   0.500
  646SOL     OW 4943   0.130   3.656   1.851
  646SOL    HW1 4944   0.089   3.582   1.904
  646SOL    HW2 4945   0.194   3.707   1.909
  647SOL     OW 4946   1.280   2.789   0.672
  647SOL    HW1 4947   1.340   2.708   0.674
  647SOL    HW2 4948   1.320   2.858   0.612
  648SOL     OW 4949   0.830   3.135   1.422
  648SOL    HW1 4950   0.825   3.168   1.517
  648SOL    HW2 4951   0.744   3.154   1.376
  649SOL     OW 4952   0.672   3.478   0.154
  649SOL    HW1 4953   0.681   3.488   0.055
  649SOL    HW2 4954   0.632   3.389   0.175
  650SOL     OW 4955   0.263   2.188   0.720
  650SOL    HW1 4956   0.184   2.239   0.686
  650SOL    HW2 4957   0.254   2.173   0.818
  651SOL     OW 4958   0.822   2.864   1.372
  651SOL    HW1 4959   0.862   2.863   1.280
  651SOL    HW2 4960   0.832   2.956   1.412
  652SOL     OW 4961   0.916   2.772   0.291
  652SOL    HW1 4962   0.979   2.810   0.223
  652SOL    HW2 4963   0.956   2.689   0.330
  653SOL     OW 4964   1.504   3.469   0.044
  653SOL    HW1 4965   1.412   3.506   0.051
  653SOL    HW2 4966   1.542   3.489  -0.046
  654SOL     OW 4967   0.372   3.150   1.490
  654SOL    HW1 4968   0.359   3.243   1.456
  654SOL    HW2 4969   0.288   3.098   1.477
  655SOL     OW 4970   1.039   2.960   0.696
  655SOL    HW1 4971   0.969   2.913   0.750
  655SOL    HW2 4972   1.098   2.892   0.653
  656SOL     OW 4973   1.014   2.098   0.971
  656SOL    HW1 4974   1.006   2.062   0.878
  656SOL    HW2 4975   1.012   2.022   1.036
  657SOL     OW 4976   0.590   3.349   0.491
  657SOL    HW1 4977   0.632   3.291   0.421
  657SOL    HW2 4978   0.546   3.428   0.447
  658SOL     OW 4979   0.255   3.210   0.290
  658SOL    HW1 4980   0.159   3.211   0.263
  658SOL    HW2 4981   0.267   3.263   0.374
  659SOL     OW 4982   0.105   2.875   1.726
  659SOL    HW1 4983   0.028   2.842   1.780
  659SOL    HW2 4984   0.190   2.845   1.768
  660SOL     OW 4985   0.672   2.065   1.489
  660SOL    HW1 4986   0.762   2.049   1.449
  660SOL    HW2 4987   0.680   2.070   1.588
  661SOL     OW 4988   0.075   2.207   0.033
  661SOL    HW1 4989  -0.017   2.179   0.004
  661SOL    HW2 4990   0.106   2.284  -0.023
  662SOL     OW 4991   0.072   2.028   0.318
  662SOL    HW1 4992   0.055   2.111   0.264
  662SOL    HW2 4993   0.162   1.991   0.296
  663SOL     OW 4994   0.613   2.704   1.431
  663SOL    HW1 4995   0.669   2.785   1.414
  663SOL    HW2 4996   0.672   2.624   1.434
  664SOL     OW 4997   1.493   3.629   0.959
  664SOL    HW1 4998   1.526   3.693   0.890
  664SOL    HW2 4999   1.559   3.623   1.034
  665SOL     OW 5000   0.716   2.427   1.708
  665SOL    HW1 5001   0.735   2.492   1.782
  665SOL    HW2 5002   0.776   2.347   1.717
  666SOL     OW 5003   0.390   3.603   1.560
  666SOL    HW1 5004   0.299   3.644   1.558
  666SOL    HW2 5005   0.383   3.509   1.592
  667SOL     OW 5006   1.225   2.187   0.449
  667SOL    HW1 5007   1.290   2.113   0.438
  667SOL    HW2 5008   1.245   2.237   0.533
  668SOL     OW 5009   0.594   2.607   0.652
  668SOL    HW1 5010   0.644   2.692   0.633
  668SOL    HW2 5011   0.506   2.609   0.604
  669SOL     OW 5012   0.661   3.652   0.953
  669SOL    HW1 5013   0.615   3.740   0.940
  669SOL    HW2 5014   0.760   3.664   0.946
  670SOL     OW 5015   0.859   2.818   0.861
  670SOL    HW1 5016   0.913   2.749   0.909
  670SOL    HW2 5017   0.827   2.887   0.927
  671SOL     OW 5018   1.083   2.846   0.087
  671SOL    HW1 5019   1.060   2.899   0.005
  671SOL    HW2 5020   1.164   2.790   0.068
  672SOL     OW 5021   1.861   3.431   0.851
  672SOL    HW1 5022   1.790   3.419   0.781
  672SOL    HW2 5023   1.862   3.352   0.911
  673SOL     OW 5024   0.221   3.176   1.844
  673SOL    HW1 5025   0.156   3.103   1.823
  673SOL    HW2 5026   0.225   3.190   1.942
  674SOL     OW 5027   0.079   3.102   0.653
  674SOL    HW1 5028   0.078   3.055   0.741
  674SOL    HW2 5029   0.161   3.074   0.602
  675SOL     OW 5030   0.672   3.253   1.624
  675SOL    HW1 5031   0.594   3.203   1.662
  675SOL    HW2 5032   0.669   3.348   1.655
  676SOL     OW 5033   0.428   2.286   0.520
  676SOL    HW1 5034   0.458   2.214   0.458
  676SOL    HW2 5035   0.389   2.246   0.603
  677SOL     OW 5036   0.317   2.409   1.280
  677SOL    HW1 5037   0.355   2.350   1.352
  677SOL    HW2 5038   0.357   2.383   1.192
  678SOL     OW 5039   0.812   3.448   0.687
  678SOL    HW1 5040   0.844   3.458   0.593
  678SOL    HW2 5041   0.733   3.386   0.689
  679SOL     OW 5042   1.001   1.896   1.154
  679SOL    HW1 5043   0.938   1.824   1.123
  679SOL    HW2 5044   1.094   1.860   1.154
  680SOL     OW 5045   0.770   3.192   0.301
  680SOL    HW1 5046   0.724   3.105   0.318
  680SOL    HW2 5047   0.861   3.189   0.342
  681SOL     OW 5048   0.618   3.429   1.284
  681SOL    HW1 5049   0.613   3.511   1.341
  681SOL    HW2 5050   0.707   3.426   1.239
  682SOL     OW 5051   1.352   1.914   0.168
  682SOL    HW1 5052   1.387   1.873   0.084
  682SOL    HW2 5053   1.262   1.876   0.188
  683SOL     OW 5054   1.300   2.315   0.691
  683SOL    HW1 5055   1.241   2.395   0.695
  683SOL    HW2 5056   1.315   2.280   0.784
  684SOL     OW 5057   1.593   2.083   0.882
  684SOL    HW1 5058   1.509   2.082   0.936
  684SOL    HW2 5059   1.595   2.166   0.826
  685SOL     OW 5060   0.039   2.939   0.300
  685SOL    HW1 5061   0.138   2.928   0.291
  685SOL    HW2 5062  -0.001   2.853   0.332
  686SOL     OW 5063   0.875   3.508   0.337
  686SOL    HW1 5064   0.798   3.473   0.283
  686SOL    HW2 5065   0.843   3.579   0.399
  687SOL     OW 5066   0.230   2.490   1.975
  687SOL    HW1 5067   0.137   2.488   2.012
  687SOL    HW2 5068   0.231   2.451   1.883
  688SOL     OW 5069   0.225   2.137   2.858
  688SOL    HW1 5070   0.260   2.120   2.950
  688SOL    HW2 5071   0.137   2.092   2.846
  689SOL     OW 5072   0.569   3.137   3.027
  689SOL    HW1 5073   0.476   3.130   2.990
  689SOL    HW2 5074   0.580   3.226   3.071
  690SOL     OW 5075   0.768   3.006   2.885
  690SOL    HW1 5076   0.690   3.023   2.945
  690SOL    HW2 5077   0.802   3.093   2.849
  691SOL     OW 5078   0.850   2.660   3.685
  691SOL    HW1 5079   0.846   2.736   3.750
  691SOL    HW2 5080   0.872   2.696   3.594
  692SOL     OW 5081   0.686   3.023   3.665
  692SOL    HW1 5082   0.746   3.102   3.679
  692SOL    HW2 5083   0.600   3.054   3.624
  693SOL     OW 5084   0.335   3.297   2.923
  693SOL    HW1 5085   0.257   3.266   2.870
  693SOL    HW2 5086   0.393   3.355   2.866
  694SOL     OW 5087   0.438   2.254   3.361
  694SOL    HW1 5088   0.520   2.198   3.370
  694SOL    HW2 5089   0.357   2.196   3.365
  695SOL     OW 5090   0.231   3.575   2.345
  695SOL    HW1 5091   0.265   3.652   2.399
  695SOL    HW2 5092   0.275   3.575   2.255
  696SOL     OW 5093   1.127   3.203   3.552
  696SOL    HW1 5094   1.174   3.203   3.640
  696SOL    HW2 5095   1.079   3.116   3.541
  697SOL     OW 5096   0.230   3.296   2.400
  697SOL    HW1 5097   0.204   3.392   2.400
  697SOL    HW2 5098   0.159   3.242   2.445
  698SOL     OW 5099   0.240   2.953   2.748
  698SOL    HW1 5100   0.254   2.869   2.800
  698SOL    HW2 5101   0.185   3.017   2.803
  699SOL     OW 5102   0.620   3.648   3.301
  699SOL    HW1 5103   0.528   3.631   3.336
  699SOL    HW2 5104   0.648   3.740   3.327
  700SOL     OW 5105   0.122   2.505   2.425
  700SOL    HW1 5106   0.077   2.417   2.442
  700SOL    HW2 5107   0.121   2.559   2.509
  701SOL     OW 5108   0.027   3.458   1.979
  701SOL    HW1 5109   0.008   3.362   2.000
  701SOL    HW2 5110  -0.006   3.516   2.054
  702SOL     OW 5111   0.113   2.599   3.459
  702SOL    HW1 5112   0.201   2.586   3.504
  702SOL    HW2 5113   0.100   2.696   3.437
  703SOL     OW 5114   0.613   3.227   2.588
  703SOL    HW1 5115   0.564   3.140   2.597
  703SOL    HW2 5116   0.590   3.270   2.501
  704SOL     OW 5117   0.809   1.866   2.364
  704SOL    HW1 5118   0.849   1.957   2.355
  704SOL    HW2 5119   0.709   1.874   2.370
  705SOL     OW 5120   0.197   2.838   3.126
  705SOL    HW1 5121   0.286   2.793   3.112
  705SOL    HW2 5122   0.124   2.773   3.107
  706SOL     OW 5123   1.187   3.654   3.478
  706SOL    HW1 5124   1.211   3.714   3.402
  706SOL    HW2 5125   1.194   3.559   3.448
  707SOL     OW 5126   0.317   2.113   3.663
  707SOL    HW1 5127   0.388   2.184   3.669
  707SOL    HW2 5128   0.229   2.152   3.691
  708SOL     OW 5129   0.807   2.467   3.327
  708SOL    HW1 5130   0.760   2.464   3.416
  708SOL    HW2 5131   0.756   2.412   3.261
  709SOL     OW 5132   0.973   2.752   3.434
  709SOL    HW1 5133   1.019   2.668   3.405
  709SOL    HW2 5134   0.917   2.786   3.359
  710SOL     OW 5135   0.076   2.673   2.651
  710SOL    HW1 5136   0.175   2.661   2.660
  710SOL    HW2 5137   0.052   2.768   2.672
  711SOL     OW 5138   0.130   3.683   3.433
  711SOL    HW1 5139   0.120   3.668   3.532
  711SOL    HW2 5140   0.044   3.719   3.397
  712SOL     OW 5141   0.550   2.058   2.747
  712SOL    HW1 5142   0.545   2.053   2.847
  712SOL    HW2 5143   0.552   2.154   2.718
  713SOL     OW 5144   0.351   3.663   2.715
  713SOL    HW1 5145   0.401   3.577   2.721
  713SOL    HW2 5146   0.416   3.740   2.712
  714SOL     OW 5147   1.227   3.412   3.368
  714SOL    HW1 5148   1.233   3.335   3.432
  714SOL    HW2 5149   1.175   3.386   3.288
  715SOL     OW 5150   0.321   2.805   2.104
  715SOL    HW1 5151   0.403   2.844   2.062
  715SOL    HW2 5152   0.294   2.723   2.055
  716SOL     OW 5153   0.461   3.128   3.589
  716SOL    HW1 5154   0.411   3.129   3.503
  716SOL    HW2 5155   0.398   3.110   3.665
  717SOL     OW 5156   1.111   3.638   2.099
  717SOL    HW1 5157   1.051   3.576   2.149
  717SOL    HW2 5158   1.142   3.594   2.014
  718SOL     OW 5159   0.202   2.147   3.360
  718SOL    HW1 5160   0.122   2.207   3.347
  718SOL    HW2 5161   0.192   2.098   3.446
  719SOL     OW 5162   0.464   3.605   2.185
  719SOL    HW1 5163   0.497   3.644   2.271
  719SOL    HW2 5164   0.540   3.598   2.120
  720SOL     OW 5165   0.249   3.647   3.103
  720SOL    HW1 5166   0.306   3.582   3.153
  720SOL    HW2 5167   0.233   3.614   3.010
  721SOL     OW 5168   0.382   2.562   2.342
  721SOL    HW1 5169   0.427   2.472   2.339
  721SOL    HW2 5170   0.288   2.551   2.375
  722SOL     OW 5171   0.781   2.126   3.611
  722SOL    HW1 5172   0.848   2.065   3.654
  722SOL    HW2 5173   0.708   2.145   3.676
  723SOL     OW 5174   0.803   3.264   2.786
  723SOL    HW1 5175   0.893   3.278   2.744
  723SOL    HW2 5176   0.732   3.266   2.715
  724SOL     OW 5177   0.539   1.926   2.374
  724SOL    HW1 5178   0.458   1.927   2.432
  724SOL    HW2 5179   0.542   2.009   2.319
  725SOL     OW 5180   0.459   3.014   2.603
  725SOL    HW1 5181   0.388   2.987   2.668
  725SOL    HW2 5182   0.433   2.986   2.510
  726SOL     OW 5183   0.078   2.418   3.248
  726SOL    HW1 5184   0.170   2.417   3.207
  726SOL    HW2 5185   0.072   2.492   3.315
  727SOL     OW 5186   0.561   2.084   3.009
  727SOL    HW1 5187   0.599   2.000   3.046
  727SOL    HW2 5188   0.473   2.103   3.053
  728SOL     OW 5189   0.488   3.247   2.036
  728SOL    HW1 5190   0.401   3.232   2.083
  728SOL    HW2 5191   0.471   3.273   1.941
  729SOL     OW 5192   0.980   2.978   3.581
  729SOL    HW1 5193   0.881   2.984   3.591
  729SOL    HW2 5194   1.003   2.898   3.525
  730SOL     OW 5195   0.410   2.675   3.113
  730SOL    HW1 5196   0.496   2.687   3.163
  730SOL    HW2 5197   0.368   2.588   3.140
  731SOL     OW 5198   0.367   2.962   2.363
  731SOL    HW1 5199   0.360   3.045   2.307
  731SOL    HW2 5200   0.371   2.882   2.303
  732SOL     OW 5201   0.354   3.372   3.191
  732SOL    HW1 5202   0.333   3.328   3.104
  732SOL    HW2 5203   0.451   3.398   3.194
  733SOL     OW 5204   0.402   2.613   3.460
  733SOL    HW1 5205   0.470   2.668   3.413
  733SOL    HW2 5206   0.442   2.525   3.487
  734SOL     OW 5207   0.504   1.912   3.602
  734SOL    HW1 5208   0.462   1.855   3.532
  734SOL    HW2 5209   0.438   1.981   3.634
  735SOL     OW 5210   0.307   2.075   3.093
  735SOL    HW1 5211   0.284   2.112   3.183
  735SOL    HW2 5212   0.277   1.980   3.087
  736SOL     OW 5213   0.037   3.172   3.144
  736SOL    HW1 5214   0.090   3.123   3.212
  736SOL    HW2 5215   0.059   3.270   3.149
  737SOL     OW 5216   0.307   1.925   2.480
  737SOL    HW1 5217   0.296   2.019   2.513
  737SOL    HW2 5218   0.302   1.862   2.557
  738SOL     OW 5219   0.980   3.435   3.562
  738SOL    HW1 5220   0.960   3.479   3.474
  738SOL    HW2 5221   1.019   3.344   3.546
  739SOL     OW 5222   0.350   2.760   3.666
  739SOL    HW1 5223   0.426   2.804   3.714
  739SOL    HW2 5224   0.385   2.713   3.584
  740SOL     OW 5225   0.319   2.672   2.811
  740SOL    HW1 5226   0.412   2.708   2.816
  740SOL    HW2 5227   0.313   2.587   2.863
  741SOL     OW 5228   0.339   2.371   2.868
  741SOL    HW1 5229   0.287   2.288   2.851
  741SOL    HW2 5230   0.416   2.376   2.804
  742SOL     OW 5231   0.008   3.188   2.062
  742SOL    HW1 5232  -0.085   3.209   2.031
  742SOL    HW2 5233   0.018   3.089   2.075
  743SOL     OW 5234   0.088   3.663   2.789
  743SOL    HW1 5235   0.046   3.577   2.762
  743SOL    HW2 5236   0.182   3.666   2.755
  744SOL     OW 5237   0.504   3.430   2.772
  744SOL    HW1 5238   0.570   3.504   2.781
  744SOL    HW2 5239   0.548   3.351   2.730
  745SOL     OW 5240   0.040   2.406   2.976
  745SOL    HW1 5241   0.125   2.373   2.935
  745SOL    HW2 5242   0.053   2.421   3.074
  746SOL     OW 5243   0.189   2.382   3.584
  746SOL    HW1 5244   0.248   2.342   3.514
  746SOL    HW2 5245   0.131   2.453   3.543
  747SOL     OW 5246   0.252   3.426   3.606
  747SOL    HW1 5247   0.222   3.483   3.682
  747SOL    HW2 5248   0.245   3.329   3.632
  748SOL     OW 5249   0.671   2.326   3.131
  748SOL    HW1 5250   0.637   2.237   3.101
  748SOL    HW2 5251   0.697   2.380   3.051
  749SOL     OW 5252   0.930   3.540   3.327
  749SOL    HW1 5253   0.906   3.522   3.232
  749SOL    HW2 5254   0.960   3.634   3.337
  750SOL     OW 5255   0.473   2.362   2.053
  750SOL    HW1 5256   0.534   2.442   2.057
  750SOL    HW2 5257   0.378   2.393   2.060
  751SOL     OW 5258   0.159   2.999   3.328
  751SOL    HW1 5259   0.181   2.938   3.404
  751SOL    HW2 5260   0.169   2.950   3.242
  752SOL     OW 5261   0.083   3.120   2.884
  752SOL    HW1 5262   0.078   3.119   2.984
  752SOL    HW2 5263   0.000   3.079   2.846
  753SOL     OW 5264   0.688   3.524   3.578
  753SOL    HW1 5265   0.632   3.605   3.587
  753SOL    HW2 5266   0.740   3.528   3.492
  754SOL     OW 5267   0.130   3.656   3.713
  754SOL    HW1 5268   0.089   3.582   3.766
  754SOL    HW2 5269   0.194   3.707   3.771
  755SOL     OW 5270   0.830   3.135   3.284
  755SOL    HW1 5271   0.825   3.168   3.379
  755SOL    HW2 5272   0.744   3.154   3.238
  756SOL     OW 5273   0.672   3.478   2.016
  756SOL    HW1 5274   0.681   3.488   1.917
  756SOL    HW2 5275   0.632   3.389   2.037
  757SOL     OW 5276   0.263   2.188   2.582
  757SOL    HW1 5277   0.184   2.239   2.548
  757SOL    HW2 5278   0.254   2.173   2.680
  758SOL     OW 5279   0.372   3.150   3.352
  758SOL    HW1 5280   0.359   3.243   3.318
  758SOL    HW2 5281   0.288   3.098   3.339
  759SOL     OW 5282   0.590   3.349   2.353
  759SOL    HW1 5283   0.632   3.291   2.283
  759SOL    HW2 5284   0.546   3.428   2.309
  760SOL     OW 5285   0.255   3.210   2.152
  760SOL    HW1 5286   0.159   3.211   2.125
  760SOL    HW2 5287   0.267   3.263   2.236
  761SOL     OW 5288   0.105   2.875   3.588
  761SOL    HW1 5289   0.028   2.842   3.642
  761SOL    HW2 5290   0.190   2.845   3.630
  762SOL     OW 5291   0.672   2.065   3.351
  762SOL    HW1 5292   0.762   2.049   3.311
  762SOL    HW2 5293   0.680   2.070   3.450
  763SOL     OW 5294   0.075   2.207   1.895
  763SOL    HW1 5295  -0.017   2.179   1.866
  763SOL    HW2 5296   0.106   2.284   1.839
  764SOL     OW 5297   0.072   2.028   2.180
  764SOL    HW1 5298   0.055   2.111   2.126
  764SOL    HW2 5299   0.162   1.991   2.158
  765SOL     OW 5300   0.716   2.427   3.570
  765SOL    HW1 5301   0.735   2.492   3.644
  765SOL    HW2 5302   0.776   2.347   3.579
  766SOL     OW 5303   0.390   3.603   3.422
  766SOL    HW1 5304   0.299   3.644   3.420
  766SOL    HW2 5305   0.383   3.509   3.454
  767SOL     OW 5306   0.661   3.652   2.815
  767SOL    HW1 5307   0.615   3.740   2.802
  767SOL    HW2 5308   0.760   3.664   2.808
  768SOL     OW 5309   0.221   3.176   3.706
  768SOL    HW1 5310   0.156   3.103   3.685
  768SOL    HW2 5311   0.225   3.190   3.804
  769SOL     OW 5312   0.079   3.102   2.515
  769SOL    HW1 5313   0.078   3.055   2.603
  769SOL    HW2 5314   0.161   3.074   2.464
  770SOL     OW 5315   0.672   3.253   3.486
  770SOL    HW1 5316   0.594   3.203   3.524
  770SOL    HW2 5317   0.669   3.348   3.517
  771SOL     OW 5318   0.428   2.286   2.382
  771SOL    HW1 5319   0.458   2.214   2.320
  771SOL    HW2 5320   0.389   2.246   2.465
  772SOL     OW 5321   0.317   2.409   3.142
  772SOL    HW1 5322   0.355   2.350   3.214
  772SOL    HW2 5323   0.357   2.383   3.054
  773SOL     OW 5324   0.812   3.448   2.549
  773SOL    HW1 5325   0.844   3.458   2.455
  773SOL    HW2 5326   0.733   3.386   2.551
  774SOL     OW 5327   0.770   3.192   2.163
  774SOL    HW1 5328   0.724   3.105   2.180
  774SOL    HW2 5329   0.861   3.189   2.204
  775SOL     OW 5330   0.618   3.429   3.146
  775SOL    HW1 5331   0.613   3.511   3.203
  775SOL    HW2 5332   0.707   3.426   3.101
  776SOL     OW 5333   0.039   2.939   2.162
  776SOL    HW1 5334   0.138   2.928   2.153
  776SOL    HW2 5335  -0.001   2.853   2.194
  777SOL     OW 5336   0.875   3.508   2.199
  777SOL    HW1 5337   0.798   3.473   2.145
  777SOL    HW2 5338   0.843   3.579   2.261
  778SOL     OW 5339   0.230   2.490   3.837
  778SOL    HW1 5340   0.137   2.488   3.874
  778SOL    HW2 5341   0.231   2.451   3.745
  779SOL     OW 5342   0.225   2.137   4.720
  779SOL    HW1 5343   0.260   2.120   4.812
  779SOL    HW2 5344   0.137   2.092   4.708
  780SOL     OW 5345   0.019   2.230   4.371
  780SOL    HW1 5346  -0.063   2.273   4.410
  780SOL    HW2 5347  -0.009   2.157   4.308
  781SOL     OW 5348   0.569   3.137   4.889
  781SOL    HW1 5349   0.476   3.130   4.852
  781SOL    HW2 5350   0.580   3.226   4.933
  782SOL     OW 5351   1.555   3.373   4.427
  782SOL    HW1 5352   1.498   3.357   4.508
  782SOL    HW2 5353   1.496   3.383   4.347
  783SOL     OW 5354   1.135   2.565   4.441
  783SOL    HW1 5355   1.192   2.643   4.416
  783SOL    HW2 5356   1.075   2.591   4.517
  784SOL     OW 5357   0.768   3.006   4.747
  784SOL    HW1 5358   0.690   3.023   4.807
  784SOL    HW2 5359   0.802   3.093   4.711
  785SOL     OW 5360   0.685   2.874   4.389
  785SOL    HW1 5361   0.754   2.858   4.459
  785SOL    HW2 5362   0.612   2.931   4.427
  786SOL     OW 5363   0.335   3.297   4.785
  786SOL    HW1 5364   0.257   3.266   4.732
  786SOL    HW2 5365   0.393   3.355   4.728
  787SOL     OW 5366   1.603   2.309   4.461
  787SOL    HW1 5367   1.529   2.355   4.411
  787SOL    HW2 5368   1.654   2.377   4.514
  788SOL     OW 5369   0.231   3.575   4.207
  788SOL    HW1 5370   0.265   3.652   4.261
  788SOL    HW2 5371   0.275   3.575   4.117
  789SOL     OW 5372   0.230   3.296   4.262
  789SOL    HW1 5373   0.204   3.392   4.262
  789SOL    HW2 5374   0.159   3.242   4.307
  790SOL     OW 5375   0.240   2.953   4.610
  790SOL    HW1 5376   0.254   2.869   4.662
  790SOL    HW2 5377   0.185   3.017   4.665
  791SOL     OW 5378   0.606   2.826   3.847
  791SOL    HW1 5379   0.613   2.910   3.793
  791SOL    HW2 5380   0.652   2.839   3.935
  792SOL     OW 5381   0.122   2.505   4.287
  792SOL    HW1 5382   0.077   2.417   4.304
  792SOL    HW2 5383   0.121   2.559   4.371
  793SOL     OW 5384   1.842   3.629   4.083
  793SOL    HW1 5385   1.896   3.600   4.163
  793SOL    HW2 5386   1.872   3.719   4.054
  794SOL     OW 5387   0.027   3.458   3.841
  794SOL    HW1 5388   0.008   3.362   3.862
  794SOL    HW2 5389  -0.006   3.516   3.916
  795SOL     OW 5390   1.689   2.784   4.336
  795SOL    HW1 5391   1.784   2.755   4.344
  795SOL    HW2 5392   1.681   2.849   4.261
  796SOL     OW 5393   1.641   2.970   4.156
  796SOL    HW1 5394   1.727   2.972   4.104
  796SOL    HW2 5395   1.655   3.017   4.244
  797SOL     OW 5396   0.613   3.227   4.450
  797SOL    HW1 5397   0.564   3.140   4.459
  797SOL    HW2 5398   0.590   3.270   4.363
  798SOL     OW 5399   0.809   1.866   4.226
  798SOL    HW1 5400   0.849   1.957   4.217
  798SOL    HW2 5401   0.709   1.874   4.232
  799SOL     OW 5402   0.197   2.838   4.988
  799SOL    HW1 5403   0.286   2.793   4.974
  799SOL    HW2 5404   0.124   2.773   4.969
  800SOL     OW 5405   1.525   2.861   3.914
  800SOL    HW1 5406   1.462   2.785   3.927
  800SOL    HW2 5407   1.573   2.879   4.000
  801SOL     OW 5408   1.466   3.279   4.677
  801SOL    HW1 5409   1.407   3.285   4.757
  801SOL    HW2 5410   1.451   3.191   4.631
  802SOL     OW 5411   1.667   3.576   4.296
  802SOL    HW1 5412   1.626   3.553   4.208
  802SOL    HW2 5413   1.649   3.502   4.361
  803SOL     OW 5414   0.598   2.591   3.994
  803SOL    HW1 5415   0.622   2.660   3.926
  803SOL    HW2 5416   0.520   2.624   4.048
  804SOL     OW 5417   1.281   2.207   4.668
  804SOL    HW1 5418   1.195   2.157   4.655
  804SOL    HW2 5419   1.343   2.153   4.724
  805SOL     OW 5420   1.576   3.524   4.031
  805SOL    HW1 5421   1.665   3.570   4.034
  805SOL    HW2 5422   1.555   3.500   3.936
  806SOL     OW 5423   1.041   2.563   4.153
  806SOL    HW1 5424   1.067   2.559   4.249
  806SOL    HW2 5425   0.956   2.512   4.139
  807SOL     OW 5426   0.076   2.673   4.513
  807SOL    HW1 5427   0.175   2.661   4.522
  807SOL    HW2 5428   0.052   2.768   4.534
  808SOL     OW 5429   0.130   3.683   5.295
  808SOL    HW1 5430   0.120   3.668   5.394
  808SOL    HW2 5431   0.044   3.719   5.259
  809SOL     OW 5432   0.865   2.210   3.919
  809SOL    HW1 5433   0.924   2.273   3.870
  809SOL    HW2 5434   0.884   2.116   3.890
  810SOL     OW 5435   1.362   3.006   4.269
  810SOL    HW1 5436   1.445   2.977   4.221
  810SOL    HW2 5437   1.313   3.073   4.213
  811SOL     OW 5438   0.550   2.058   4.609
  811SOL    HW1 5439   0.545   2.053   4.709
  811SOL    HW2 5440   0.552   2.154   4.580
  812SOL     OW 5441   1.008   3.318   4.201
  812SOL    HW1 5442   0.962   3.390   4.149
  812SOL    HW2 5443   1.004   3.338   4.299
  813SOL     OW 5444   0.351   3.663   4.577
  813SOL    HW1 5445   0.401   3.577   4.583
  813SOL    HW2 5446   0.416   3.740   4.574
  814SOL     OW 5447   1.795   2.928   4.597
  814SOL    HW1 5448   1.733   2.913   4.521
  814SOL    HW2 5449   1.743   2.939   4.682
  815SOL     OW 5450   0.321   2.805   3.966
  815SOL    HW1 5451   0.403   2.844   3.924
  815SOL    HW2 5452   0.294   2.723   3.917
  816SOL     OW 5453   1.458   2.597   4.452
  816SOL    HW1 5454   1.453   2.532   4.527
  816SOL    HW2 5455   1.538   2.656   4.465
  817SOL     OW 5456   1.111   3.638   3.961
  817SOL    HW1 5457   1.051   3.576   4.011
  817SOL    HW2 5458   1.142   3.594   3.876
  818SOL     OW 5459   0.464   3.605   4.047
  818SOL    HW1 5460   0.497   3.644   4.133
  818SOL    HW2 5461   0.540   3.598   3.982
  819SOL     OW 5462   1.400   1.969   4.150
  819SOL    HW1 5463   1.376   1.932   4.060
  819SOL    HW2 5464   1.499   1.985   4.154
  820SOL     OW 5465   0.249   3.647   4.965
  820SOL    HW1 5466   0.306   3.582   5.015
  820SOL    HW2 5467   0.233   3.614   4.872
  821SOL     OW 5468   0.940   3.560   4.628
  821SOL    HW1 5469   1.020   3.503   4.649
  821SOL    HW2 5470   0.891   3.520   4.551
  822SOL     OW 5471   0.382   2.562   4.204
  822SOL    HW1 5472   0.427   2.472   4.201
  822SOL    HW2 5473   0.288   2.551   4.237
  823SOL     OW 5474   0.614   1.984   3.841
  823SOL    HW1 5475   0.712   1.962   3.848
  823SOL    HW2 5476   0.583   1.967   3.748
  824SOL     OW 5477   0.803   3.264   4.648
  824SOL    HW1 5478   0.893   3.278   4.606
  824SOL    HW2 5479   0.732   3.266   4.577
  825SOL     OW 5480   0.922   2.365   4.623
  825SOL    HW1 5481   0.897   2.356   4.527
  825SOL    HW2 5482   0.970   2.283   4.654
  826SOL     OW 5483   0.539   1.926   4.236
  826SOL    HW1 5484   0.458   1.927   4.294
  826SOL    HW2 5485   0.542   2.009   4.181
  827SOL     OW 5486   0.297   1.897   3.895
  827SOL    HW1 5487   0.346   1.981   3.874
  827SOL    HW2 5488   0.359   1.832   3.940
  828SOL     OW 5489   0.935   2.098   4.204
  828SOL    HW1 5490   0.887   2.139   4.126
  828SOL    HW2 5491   1.034   2.096   4.185
  829SOL     OW 5492   1.227   3.432   4.517
  829SOL    HW1 5493   1.248   3.506   4.452
  829SOL    HW2 5494   1.295   3.432   4.590
  830SOL     OW 5495   0.459   3.014   4.465
  830SOL    HW1 5496   0.388   2.987   4.530
  830SOL    HW2 5497   0.433   2.986   4.372
  831SOL     OW 5498   1.271   3.659   4.315
  831SOL    HW1 5499   1.315   3.723   4.251
  831SOL    HW2 5500   1.221   3.711   4.385
  832SOL     OW 5501   1.032   2.411   3.740
  832SOL    HW1 5502   0.991   2.493   3.701
  832SOL    HW2 5503   1.096   2.437   3.813
  833SOL     OW 5504   0.866   2.316   4.366
  833SOL    HW1 5505   0.834   2.388   4.304
  833SOL    HW2 5506   0.890   2.235   4.313
  834SOL     OW 5507   1.017   1.901   4.477
  834SOL    HW1 5508   0.945   1.906   4.408
  834SOL    HW2 5509   0.993   1.832   4.546
  835SOL     OW 5510   1.429   3.035   4.591
  835SOL    HW1 5511   1.374   2.951   4.584
  835SOL    HW2 5512   1.455   3.064   4.499
  836SOL     OW 5513   1.466   2.452   4.716
  836SOL    HW1 5514   1.436   2.357   4.723
  836SOL    HW2 5515   1.539   2.468   4.782
  837SOL     OW 5516   1.857   2.695   4.101
  837SOL    HW1 5517   1.899   2.631   4.165
  837SOL    HW2 5518   1.819   2.644   4.023
  838SOL     OW 5519   0.488   3.247   3.898
  838SOL    HW1 5520   0.401   3.232   3.945
  838SOL    HW2 5521   0.471   3.273   3.803
  839SOL     OW 5522   1.664   3.142   4.381
  839SOL    HW1 5523   1.763   3.150   4.395
  839SOL    HW2 5524   1.619   3.226   4.412
  840SOL     OW 5525   0.527   2.118   4.052
  840SOL    HW1 5526   0.554   2.059   3.977
  840SOL    HW2 5527   0.527   2.213   4.021
  841SOL     OW 5528   1.111   3.057   4.824
  841SOL    HW1 5529   1.071   3.101   4.905
  841SOL    HW2 5530   1.070   3.094   4.741
  842SOL     OW 5531   1.638   2.961   4.803
  842SOL    HW1 5532   1.643   3.042   4.862
  842SOL    HW2 5533   1.552   2.963   4.752
  843SOL     OW 5534   0.705   2.912   4.092
  843SOL    HW1 5535   0.691   2.919   4.191
  843SOL    HW2 5536   0.789   2.861   4.074
  844SOL     OW 5537   0.410   2.675   4.975
  844SOL    HW1 5538   0.496   2.687   5.025
  844SOL    HW2 5539   0.368   2.588   5.002
  845SOL     OW 5540   0.367   2.962   4.225
  845SOL    HW1 5541   0.360   3.045   4.169
  845SOL    HW2 5542   0.371   2.882   4.165
  846SOL     OW 5543   0.566   2.399   4.589
  846SOL    HW1 5544   0.578   2.465   4.515
  846SOL    HW2 5545   0.612   2.433   4.672
  847SOL     OW 5546   1.252   3.210   4.112
  847SOL    HW1 5547   1.302   3.287   4.152
  847SOL    HW2 5548   1.157   3.212   4.144
  848SOL     OW 5549   1.582   2.501   4.196
  848SOL    HW1 5550   1.551   2.562   4.269
  848SOL    HW2 5551   1.632   2.553   4.127
  849SOL     OW 5552   0.573   2.732   4.753
  849SOL    HW1 5553   0.617   2.821   4.744
  849SOL    HW2 5554   0.510   2.732   4.830
  850SOL     OW 5555   1.360   2.724   4.769
  850SOL    HW1 5556   1.285   2.724   4.703
  850SOL    HW2 5557   1.397   2.632   4.778
  851SOL     OW 5558   1.209   2.387   3.999
  851SOL    HW1 5559   1.222   2.303   4.053
  851SOL    HW2 5560   1.180   2.461   4.059
  852SOL     OW 5561   0.307   2.075   4.955
  852SOL    HW1 5562   0.284   2.112   5.045
  852SOL    HW2 5563   0.277   1.980   4.949
  853SOL     OW 5564   0.037   3.172   5.006
  853SOL    HW1 5565   0.090   3.123   5.074
  853SOL    HW2 5566   0.059   3.270   5.011
  854SOL     OW 5567   0.732   2.496   4.788
  854SOL    HW1 5568   0.791   2.470   4.712
  854SOL    HW2 5569   0.704   2.592   4.777
  855SOL     OW 5570   0.307   1.925   4.342
  855SOL    HW1 5571   0.296   2.019   4.375
  855SOL    HW2 5572   0.302   1.862   4.419
  856SOL     OW 5573   1.023   2.628   4.690
  856SOL    HW1 5574   1.038   2.649   4.786
  856SOL    HW2 5575   0.993   2.533   4.681
  857SOL     OW 5576   1.068   3.195   4.573
  857SOL    HW1 5577   1.075   3.111   4.518
  857SOL    HW2 5578   1.130   3.264   4.537
  858SOL     OW 5579   0.319   2.672   4.673
  858SOL    HW1 5580   0.412   2.708   4.678
  858SOL    HW2 5581   0.313   2.587   4.725
  859SOL     OW 5582   0.339   2.371   4.730
  859SOL    HW1 5583   0.287   2.288   4.713
  859SOL    HW2 5584   0.416   2.376   4.666
  860SOL     OW 5585   1.160   2.069   5.201
  860SOL    HW1 5586   1.160   2.133   5.278
  860SOL    HW2 5587   1.188   2.117   5.118
  861SOL     OW 5588   0.008   3.188   3.924
  861SOL    HW1 5589  -0.085   3.209   3.893
  861SOL    HW2 5590   0.018   3.089   3.937
  862SOL     OW 5591   0.088   3.663   4.651
  862SOL    HW1 5592   0.046   3.577   4.624
  862SOL    HW2 5593   0.182   3.666   4.617
  863SOL     OW 5594   0.504   3.430   4.634
  863SOL    HW1 5595   0.570   3.504   4.643
  863SOL    HW2 5596   0.548   3.351   4.592
  864SOL     OW 5597   1.002   2.658   4.962
  864SOL    HW1 5598   1.043   2.626   5.048
  864SOL    HW2 5599   0.906   2.631   4.959
  865SOL     OW 5600   0.040   2.406   4.838
  865SOL    HW1 5601   0.125   2.373   4.797
  865SOL    HW2 5602   0.053   2.421   4.936
  866SOL     OW 5603   0.815   2.434   4.049
  866SOL    HW1 5604   0.822   2.345   4.003
  866SOL    HW2 5605   0.721   2.468   4.041
  867SOL     OW 5606   1.657   2.466   4.930
  867SOL    HW1 5607   1.619   2.397   4.992
  867SOL    HW2 5608   1.739   2.430   4.886
  868SOL     OW 5609   0.671   2.326   4.993
  868SOL    HW1 5610   0.637   2.237   4.963
  868SOL    HW2 5611   0.697   2.380   4.913
  869SOL     OW 5612   0.473   2.362   3.915
  869SOL    HW1 5613   0.534   2.442   3.919
  869SOL    HW2 5614   0.378   2.393   3.922
  870SOL     OW 5615   1.347   2.921   4.958
  870SOL    HW1 5616   1.371   2.858   4.884
  870SOL    HW2 5617   1.257   2.961   4.940
  871SOL     OW 5618   1.302   2.717   4.033
  871SOL    HW1 5619   1.216   2.686   4.075
  871SOL    HW2 5620   1.298   2.703   3.934
  872SOL     OW 5621   1.759   3.609   4.878
  872SOL    HW1 5622   1.820   3.639   4.805
  872SOL    HW2 5623   1.721   3.520   4.856
  873SOL     OW 5624   0.083   3.120   4.746
  873SOL    HW1 5625   0.078   3.119   4.846
  873SOL    HW2 5626   0.000   3.079   4.708
  874SOL     OW 5627   1.726   1.997   4.247
  874SOL    HW1 5628   1.799   1.980   4.180
  874SOL    HW2 5629   1.695   1.910   4.285
  875SOL     OW 5630   1.388   3.435   4.201
  875SOL    HW1 5631   1.455   3.447   4.127
  875SOL    HW2 5632   1.348   3.524   4.224
  876SOL     OW 5633   1.280   2.789   4.396
  876SOL    HW1 5634   1.340   2.708   4.398
  876SOL    HW2 5635   1.320   2.858   4.336
  877SOL     OW 5636   0.672   3.478   3.878
  877SOL    HW1 5637   0.681   3.488   3.779
  877SOL    HW2 5638   0.632   3.389   3.899
  878SOL     OW 5639   1.650   3.582   5.118
  878SOL    HW1 5640   1.703   3.592   5.034
  878SOL    HW2 5641   1.623   3.672   5.152
  879SOL     OW 5642   1.841   2.037   4.687
  879SOL    HW1 5643   1.880   1.952   4.651
  879SOL    HW2 5644   1.743   2.039   4.668
  880SOL     OW 5645   0.263   2.188   4.444
  880SOL    HW1 5646   0.184   2.239   4.410
  880SOL    HW2 5647   0.254   2.173   4.542
  881SOL     OW 5648   1.194   3.474   3.755
  881SOL    HW1 5649   1.200   3.381   3.792
  881SOL    HW2 5650   1.135   3.474   3.675
  882SOL     OW 5651   0.822   2.864   5.096
  882SOL    HW1 5652   0.862   2.863   5.004
  882SOL    HW2 5653   0.832   2.956   5.136
  883SOL     OW 5654   0.916   2.772   4.015
  883SOL    HW1 5655   0.979   2.810   3.947
  883SOL    HW2 5656   0.956   2.689   4.054
  884SOL     OW 5657   1.039   2.960   4.420
  884SOL    HW1 5658   0.969   2.913   4.474
  884SOL    HW2 5659   1.098   2.892   4.377
  885SOL     OW 5660   1.014   2.098   4.695
  885SOL    HW1 5661   1.006   2.062   4.602
  885SOL    HW2 5662   1.012   2.022   4.760
  886SOL     OW 5663   0.590   3.349   4.215
  886SOL    HW1 5664   0.632   3.291   4.145
  886SOL    HW2 5665   0.546   3.428   4.171
  887SOL     OW 5666   1.709   2.247   5.105
  887SOL    HW1 5667   1.782   2.316   5.109
  887SOL    HW2 5668   1.737   2.172   5.046
  888SOL     OW 5669   0.255   3.210   4.014
  888SOL    HW1 5670   0.159   3.211   3.987
  888SOL    HW2 5671   0.267   3.263   4.098
  889SOL     OW 5672   0.075   2.207   3.757
  889SOL    HW1 5673  -0.017   2.179   3.728
  889SOL    HW2 5674   0.106   2.284   3.701
  890SOL     OW 5675   0.072   2.028   4.042
  890SOL    HW1 5676   0.055   2.111   3.988
  890SOL    HW2 5677   0.162   1.991   4.020
  891SOL     OW 5678   1.183   3.197   3.843
  891SOL    HW1 5679   1.084   3.186   3.845
  891SOL    HW2 5680   1.217   3.212   3.936
  892SOL     OW 5681   1.493   3.629   4.683
  892SOL    HW1 5682   1.526   3.693   4.614
  892SOL    HW2 5683   1.559   3.623   4.758
  893SOL     OW 5684   1.674   2.745   4.978
  893SOL    HW1 5685   1.647   2.656   4.941
  893SOL    HW2 5686   1.675   2.813   4.905
  894SOL     OW 5687   1.225   2.187   4.173
  894SOL    HW1 5688   1.290   2.113   4.162
  894SOL    HW2 5689   1.245   2.237   4.257
  895SOL     OW 5690   0.594   2.607   4.376
  895SOL    HW1 5691   0.644   2.692   4.357
  895SOL    HW2 5692   0.506   2.609   4.328
  896SOL     OW 5693   1.730   2.796   5.241
  896SOL    HW1 5694   1.768   2.887   5.256
  896SOL    HW2 5695   1.722   2.779   5.142
  897SOL     OW 5696   0.859   3.236   3.740
  897SOL    HW1 5697   0.813   3.251   3.828
  897SOL    HW2 5698   0.903   3.321   3.710
  898SOL     OW 5699   0.661   3.652   4.677
  898SOL    HW1 5700   0.615   3.740   4.664
  898SOL    HW2 5701   0.760   3.664   4.670
  899SOL     OW 5702   0.859   2.818   4.585
  899SOL    HW1 5703   0.913   2.749   4.633
  899SOL    HW2 5704   0.827   2.887   4.651
  900SOL     OW 5705   1.083   2.846   3.811
  900SOL    HW1 5706   1.060   2.899   3.729
  900SOL    HW2 5707   1.164   2.790   3.792
  901SOL     OW 5708   1.861   3.431   4.575
  901SOL    HW1 5709   1.790   3.419   4.505
  901SOL    HW2 5710   1.862   3.352   4.635
  902SOL     OW 5711   0.079   3.102   4.377
  902SOL    HW1 5712   0.078   3.055   4.465
  902SOL    HW2 5713   0.161   3.074   4.326
  903SOL     OW 5714   1.824   2.054   4.951
  903SOL    HW1 5715   1.820   1.964   4.995
  903SOL    HW2 5716   1.827   2.043   4.852
  904SOL     OW 5717   0.428   2.286   4.244
  904SOL    HW1 5718   0.458   2.214   4.182
  904SOL    HW2 5719   0.389   2.246   4.327
  905SOL     OW 5720   1.705   3.349   4.828
  905SOL    HW1 5721   1.612   3.324   4.801
  905SOL    HW2 5722   1.731   3.299   4.910
  906SOL     OW 5723   0.812   3.448   4.411
  906SOL    HW1 5724   0.844   3.458   4.317
  906SOL    HW2 5725   0.733   3.386   4.413
  907SOL     OW 5726   0.770   3.192   4.025
  907SOL    HW1 5727   0.724   3.105   4.042
  907SOL    HW2 5728   0.861   3.189   4.066
  908SOL     OW 5729   1.300   2.315   4.415
  908SOL    HW1 5730   1.241   2.395   4.419
  908SOL    HW2 5731   1.315   2.280   4.508
  909SOL     OW 5732   1.593   2.083   4.606
  909SOL    HW1 5733   1.509   2.082   4.660
  909SOL    HW2 5734   1.595   2.166   4.550
  910SOL     OW 5735   0.039   2.939   4.024
  910SOL    HW1 5736   0.138   2.928   4.015
  910SOL    HW2 5737  -0.001   2.853   4.056
  911SOL     OW 5738   0.875   3.508   4.061
  911SOL    HW1 5739   0.798   3.473   4.007
  911SOL    HW2 5740   0.843   3.579   4.123
  912SOL     OW 5741   0.230   4.352   0.113
  912SOL    HW1 5742   0.137   4.350   0.150
  912SOL    HW2 5743   0.231   4.313   0.021
  913SOL     OW 5744   0.225   3.999   0.996
  913SOL    HW1 5745   0.260   3.982   1.088
  913SOL    HW2 5746   0.137   3.954   0.984
  914SOL     OW 5747   0.019   4.092   0.647
  914SOL    HW1 5748  -0.063   4.135   0.686
  914SOL    HW2 5749  -0.009   4.019   0.584
  915SOL     OW 5750   1.135   4.427   0.717
  915SOL    HW1 5751   1.192   4.505   0.692
  915SOL    HW2 5752   1.075   4.453   0.793
  916SOL     OW 5753   1.755   4.331   0.231
  916SOL    HW1 5754   1.743   4.318   0.132
  916SOL    HW2 5755   1.725   4.250   0.280
  917SOL     OW 5756   0.768   4.868   1.023
  917SOL    HW1 5757   0.690   4.885   1.083
  917SOL    HW2 5758   0.802   4.955   0.987
  918SOL     OW 5759   0.850   4.522   1.823
  918SOL    HW1 5760   0.846   4.598   1.888
  918SOL    HW2 5761   0.872   4.558   1.732
  919SOL     OW 5762   0.685   4.736   0.665
  919SOL    HW1 5763   0.754   4.720   0.735
  919SOL    HW2 5764   0.612   4.793   0.703
  920SOL     OW 5765   0.686   4.885   1.803
  920SOL    HW1 5766   0.746   4.964   1.817
  920SOL    HW2 5767   0.600   4.916   1.762
  921SOL     OW 5768   0.438   4.116   1.499
  921SOL    HW1 5769   0.520   4.060   1.508
  921SOL    HW2 5770   0.357   4.058   1.503
  922SOL     OW 5771   1.603   4.171   0.737
  922SOL    HW1 5772   1.529   4.217   0.687
  922SOL    HW2 5773   1.654   4.239   0.790
  923SOL     OW 5774   0.240   4.815   0.886
  923SOL    HW1 5775   0.254   4.731   0.938
  923SOL    HW2 5776   0.185   4.879   0.941
  924SOL     OW 5777   0.606   4.688   0.123
  924SOL    HW1 5778   0.613   4.772   0.069
  924SOL    HW2 5779   0.652   4.701   0.211
  925SOL     OW 5780   0.122   4.367   0.563
  925SOL    HW1 5781   0.077   4.279   0.580
  925SOL    HW2 5782   0.121   4.421   0.647
  926SOL     OW 5783   1.689   4.646   0.612
  926SOL    HW1 5784   1.784   4.617   0.620
  926SOL    HW2 5785   1.681   4.711   0.537
  927SOL     OW 5786   1.641   4.832   0.432
  927SOL    HW1 5787   1.727   4.834   0.380
  927SOL    HW2 5788   1.655   4.879   0.520
  928SOL     OW 5789   0.113   4.461   1.597
  928SOL    HW1 5790   0.201   4.448   1.642
  928SOL    HW2 5791   0.100   4.558   1.575
  929SOL     OW 5792   1.293   4.952   1.423
  929SOL    HW1 5793   1.330   4.879   1.365
  929SOL    HW2 5794   1.345   4.957   1.508
  930SOL     OW 5795   0.809   3.728   0.502
  930SOL    HW1 5796   0.849   3.819   0.493
  930SOL    HW2 5797   0.709   3.736   0.508
  931SOL     OW 5798   0.197   4.700   1.264
  931SOL    HW1 5799   0.286   4.655   1.250
  931SOL    HW2 5800   0.124   4.635   1.245
  932SOL     OW 5801   1.525   4.723   0.190
  932SOL    HW1 5802   1.462   4.647   0.203
  932SOL    HW2 5803   1.573   4.741   0.276
  933SOL     OW 5804   0.317   3.975   1.801
  933SOL    HW1 5805   0.388   4.046   1.807
  933SOL    HW2 5806   0.229   4.014   1.829
  934SOL     OW 5807   0.598   4.453   0.270
  934SOL    HW1 5808   0.622   4.522   0.202
  934SOL    HW2 5809   0.520   4.486   0.324
  935SOL     OW 5810   1.281   4.069   0.944
  935SOL    HW1 5811   1.195   4.019   0.931
  935SOL    HW2 5812   1.343   4.015   1.000
  936SOL     OW 5813   0.807   4.329   1.465
  936SOL    HW1 5814   0.760   4.326   1.554
  936SOL    HW2 5815   0.756   4.274   1.399
  937SOL     OW 5816   1.394   4.193   1.674
  937SOL    HW1 5817   1.374   4.236   1.762
  937SOL    HW2 5818   1.472   4.131   1.683
  938SOL     OW 5819   0.973   4.614   1.572
  938SOL    HW1 5820   1.019   4.530   1.543
  938SOL    HW2 5821   0.917   4.648   1.497
  939SOL     OW 5822   0.991   4.134   1.242
  939SOL    HW1 5823   0.914   4.168   1.296
  939SOL    HW2 5824   0.957   4.083   1.163
  940SOL     OW 5825   1.041   4.425   0.429
  940SOL    HW1 5826   1.067   4.421   0.525
  940SOL    HW2 5827   0.956   4.374   0.415
  941SOL     OW 5828   0.076   4.535   0.789
  941SOL    HW1 5829   0.175   4.523   0.798
  941SOL    HW2 5830   0.052   4.630   0.810
  942SOL     OW 5831   0.865   4.072   0.195
  942SOL    HW1 5832   0.924   4.135   0.146
  942SOL    HW2 5833   0.884   3.978   0.166
  943SOL     OW 5834   1.719   4.309   1.831
  943SOL    HW1 5835   1.693   4.398   1.795
  943SOL    HW2 5836   1.717   4.241   1.758
  944SOL     OW 5837   1.362   4.868   0.545
  944SOL    HW1 5838   1.445   4.839   0.497
  944SOL    HW2 5839   1.313   4.935   0.489
  945SOL     OW 5840   0.550   3.920   0.885
  945SOL    HW1 5841   0.545   3.915   0.985
  945SOL    HW2 5842   0.552   4.016   0.856
  946SOL     OW 5843   1.795   4.790   0.873
  946SOL    HW1 5844   1.733   4.775   0.797
  946SOL    HW2 5845   1.743   4.801   0.958
  947SOL     OW 5846   0.321   4.667   0.242
  947SOL    HW1 5847   0.403   4.706   0.200
  947SOL    HW2 5848   0.294   4.585   0.193
  948SOL     OW 5849   1.458   4.459   0.728
  948SOL    HW1 5850   1.453   4.394   0.803
  948SOL    HW2 5851   1.538   4.518   0.741
  949SOL     OW 5852   0.202   4.009   1.498
  949SOL    HW1 5853   0.122   4.069   1.485
  949SOL    HW2 5854   0.192   3.960   1.584
  950SOL     OW 5855   1.400   3.831   0.426
  950SOL    HW1 5856   1.376   3.794   0.336
  950SOL    HW2 5857   1.499   3.847   0.430
  951SOL     OW 5858   0.382   4.424   0.480
  951SOL    HW1 5859   0.427   4.334   0.477
  951SOL    HW2 5860   0.288   4.413   0.513
  952SOL     OW 5861   1.547   3.946   1.729
  952SOL    HW1 5862   1.542   3.983   1.821
  952SOL    HW2 5863   1.475   3.877   1.717
  953SOL     OW 5864   0.614   3.846   0.117
  953SOL    HW1 5865   0.712   3.824   0.124
  953SOL    HW2 5866   0.583   3.829   0.024
  954SOL     OW 5867   1.351   4.314   1.433
  954SOL    HW1 5868   1.379   4.271   1.518
  954SOL    HW2 5869   1.376   4.410   1.434
  955SOL     OW 5870   0.922   4.227   0.899
  955SOL    HW1 5871   0.897   4.218   0.803
  955SOL    HW2 5872   0.970   4.145   0.930
  956SOL     OW 5873   0.539   3.788   0.512
  956SOL    HW1 5874   0.458   3.789   0.570
  956SOL    HW2 5875   0.542   3.871   0.457
  957SOL     OW 5876   0.297   3.759   0.171
  957SOL    HW1 5877   0.346   3.843   0.150
  957SOL    HW2 5878   0.359   3.694   0.216
  958SOL     OW 5879   0.935   3.960   0.480
  958SOL    HW1 5880   0.887   4.001   0.402
  958SOL    HW2 5881   1.034   3.958   0.461
  959SOL     OW 5882   1.076   4.407   1.464
  959SOL    HW1 5883   0.996   4.346   1.467
  959SOL    HW2 5884   1.157   4.354   1.440
  960SOL     OW 5885   0.459   4.876   0.741
  960SOL    HW1 5886   0.388   4.849   0.806
  960SOL    HW2 5887   0.433   4.848   0.648
  961SOL     OW 5888   1.032   4.273   0.016
  961SOL    HW1 5889   0.991   4.355  -0.023
  961SOL    HW2 5890   1.096   4.299   0.089
  962SOL     OW 5891   0.078   4.280   1.386
  962SOL    HW1 5892   0.170   4.279   1.345
  962SOL    HW2 5893   0.072   4.354   1.453
  963SOL     OW 5894   0.561   3.946   1.147
  963SOL    HW1 5895   0.599   3.862   1.184
  963SOL    HW2 5896   0.473   3.965   1.191
  964SOL     OW 5897   0.866   4.178   0.642
  964SOL    HW1 5898   0.834   4.250   0.580
  964SOL    HW2 5899   0.890   4.097   0.589
  965SOL     OW 5900   1.017   3.763   0.753
  965SOL    HW1 5901   0.945   3.768   0.684
  965SOL    HW2 5902   0.993   3.694   0.822
  966SOL     OW 5903   1.429   4.897   0.867
  966SOL    HW1 5904   1.374   4.813   0.860
  966SOL    HW2 5905   1.455   4.926   0.775
  967SOL     OW 5906   1.466   4.314   0.992
  967SOL    HW1 5907   1.436   4.219   0.999
  967SOL    HW2 5908   1.539   4.330   1.058
  968SOL     OW 5909   1.857   4.557   0.377
  968SOL    HW1 5910   1.899   4.493   0.441
  968SOL    HW2 5911   1.819   4.506   0.299
  969SOL     OW 5912   1.390   4.299   0.078
  969SOL    HW1 5913   1.336   4.278   0.159
  969SOL    HW2 5914   1.481   4.258   0.087
  970SOL     OW 5915   0.527   3.980   0.328
  970SOL    HW1 5916   0.554   3.921   0.253
  970SOL    HW2 5917   0.527   4.075   0.297
  971SOL     OW 5918   1.754   4.947   1.588
  971SOL    HW1 5919   1.845   4.908   1.575
  971SOL    HW2 5920   1.762   5.043   1.612
  972SOL     OW 5921   1.638   4.823   1.079
  972SOL    HW1 5922   1.643   4.904   1.138
  972SOL    HW2 5923   1.552   4.825   1.028
  973SOL     OW 5924   0.915   3.813   1.402
  973SOL    HW1 5925   0.940   3.793   1.307
  973SOL    HW2 5926   0.987   3.869   1.444
  974SOL     OW 5927   0.980   4.840   1.719
  974SOL    HW1 5928   0.881   4.846   1.729
  974SOL    HW2 5929   1.003   4.760   1.663
  975SOL     OW 5930   0.705   4.774   0.368
  975SOL    HW1 5931   0.691   4.781   0.467
  975SOL    HW2 5932   0.789   4.723   0.350
  976SOL     OW 5933   0.410   4.537   1.251
  976SOL    HW1 5934   0.496   4.549   1.301
  976SOL    HW2 5935   0.368   4.450   1.278
  977SOL     OW 5936   1.274   4.110   1.262
  977SOL    HW1 5937   1.295   4.184   1.326
  977SOL    HW2 5938   1.185   4.127   1.219
  978SOL     OW 5939   0.367   4.824   0.501
  978SOL    HW1 5940   0.360   4.907   0.445
  978SOL    HW2 5941   0.371   4.744   0.441
  979SOL     OW 5942   0.566   4.261   0.865
  979SOL    HW1 5943   0.578   4.327   0.791
  979SOL    HW2 5944   0.612   4.295   0.948
  980SOL     OW 5945   1.582   4.363   0.472
  980SOL    HW1 5946   1.551   4.424   0.545
  980SOL    HW2 5947   1.632   4.415   0.403
  981SOL     OW 5948   0.402   4.475   1.598
  981SOL    HW1 5949   0.470   4.530   1.551
  981SOL    HW2 5950   0.442   4.387   1.625
  982SOL     OW 5951   1.587   4.503   1.670
  982SOL    HW1 5952   1.495   4.541   1.665
  982SOL    HW2 5953   1.647   4.550   1.605
  983SOL     OW 5954   1.013   3.829   1.770
  983SOL    HW1 5955   1.019   3.914   1.718
  983SOL    HW2 5956   1.045   3.753   1.713
  984SOL     OW 5957   0.504   3.774   1.740
  984SOL    HW1 5958   0.462   3.717   1.670
  984SOL    HW2 5959   0.438   3.843   1.772
  985SOL     OW 5960   0.573   4.594   1.029
  985SOL    HW1 5961   0.617   4.683   1.020
  985SOL    HW2 5962   0.510   4.594   1.106
  986SOL     OW 5963   1.360   4.586   1.045
  986SOL    HW1 5964   1.285   4.586   0.979
  986SOL    HW2 5965   1.397   4.494   1.054
  987SOL     OW 5966   1.209   4.249   0.275
  987SOL    HW1 5967   1.222   4.165   0.329
  987SOL    HW2 5968   1.180   4.323   0.335
  988SOL     OW 5969   0.307   3.937   1.231
  988SOL    HW1 5970   0.284   3.974   1.321
  988SOL    HW2 5971   0.277   3.842   1.225
  989SOL     OW 5972   0.037   5.034   1.282
  989SOL    HW1 5973   0.090   4.985   1.350
  989SOL    HW2 5974   0.059   5.132   1.287
  990SOL     OW 5975   0.732   4.358   1.064
  990SOL    HW1 5976   0.791   4.332   0.988
  990SOL    HW2 5977   0.704   4.454   1.053
  991SOL     OW 5978   1.728   4.659   1.854
  991SOL    HW1 5979   1.682   4.652   1.765
  991SOL    HW2 5980   1.666   4.703   1.920
  992SOL     OW 5981   0.307   3.787   0.618
  992SOL    HW1 5982   0.296   3.881   0.651
  992SOL    HW2 5983   0.302   3.724   0.695
  993SOL     OW 5984   1.622   4.091   0.374
  993SOL    HW1 5985   1.624   4.015   0.438
  993SOL    HW2 5986   1.574   4.168   0.414
  994SOL     OW 5987   1.023   4.490   0.966
  994SOL    HW1 5988   1.038   4.511   1.062
  994SOL    HW2 5989   0.993   4.395   0.957
  995SOL     OW 5990   0.350   4.622   1.804
  995SOL    HW1 5991   0.426   4.666   1.852
  995SOL    HW2 5992   0.385   4.575   1.722
  996SOL     OW 5993   1.540   3.998   0.125
  996SOL    HW1 5994   1.479   3.923   0.148
  996SOL    HW2 5995   1.562   4.050   0.208
  997SOL     OW 5996   1.303   4.562   0.042
  997SOL    HW1 5997   1.337   4.469   0.057
  997SOL    HW2 5998   1.321   4.589  -0.053
  998SOL     OW 5999   0.319   4.534   0.949
  998SOL    HW1 6000   0.412   4.570   0.954
  998SOL    HW2 6001   0.313   4.449   1.001
  999SOL     OW 6002   0.339   4.233   1.006
  999SOL    HW1 6003   0.287   4.150   0.989
  999SOL    HW2 6004   0.416   4.238   0.942
 1000SOL     OW 6005   1.138   4.104   1.678
 1000SOL    HW1 6006   1.093   4.167   1.742
 1000SOL    HW2 6007   1.231   4.135   1.661
 1001SOL     OW 6008   1.160   3.931   1.477
 1001SOL    HW1 6009   1.160   3.995   1.554
 1001SOL    HW2 6010   1.188   3.979   1.394
 1002SOL     OW 6011   0.008   5.050   0.200
 1002SOL    HW1 6012  -0.085   5.071   0.169
 1002SOL    HW2 6013   0.018   4.951   0.213
 1003SOL     OW 6014   1.002   4.520   1.238
 1003SOL    HW1 6015   1.043   4.488   1.324
 1003SOL    HW2 6016   0.906   4.493   1.235
 1004SOL     OW 6017   0.040   4.268   1.114
 1004SOL    HW1 6018   0.125   4.235   1.073
 1004SOL    HW2 6019   0.053   4.283   1.212
 1005SOL     OW 6020   0.189   4.244   1.722
 1005SOL    HW1 6021   0.248   4.204   1.652
 1005SOL    HW2 6022   0.131   4.315   1.681
 1006SOL     OW 6023   1.369   4.674   1.660
 1006SOL    HW1 6024   1.408   4.763   1.680
 1006SOL    HW2 6025   1.379   4.654   1.563
 1007SOL     OW 6026   0.815   4.296   0.325
 1007SOL    HW1 6027   0.822   4.207   0.279
 1007SOL    HW2 6028   0.721   4.330   0.317
 1008SOL     OW 6029   1.657   4.328   1.206
 1008SOL    HW1 6030   1.619   4.259   1.268
 1008SOL    HW2 6031   1.739   4.292   1.162
 1009SOL     OW 6032   0.671   4.188   1.269
 1009SOL    HW1 6033   0.637   4.099   1.239
 1009SOL    HW2 6034   0.697   4.242   1.189
 1010SOL     OW 6035   0.473   4.224   0.191
 1010SOL    HW1 6036   0.534   4.304   0.195
 1010SOL    HW2 6037   0.378   4.255   0.198
 1011SOL     OW 6038   0.159   4.861   1.466
 1011SOL    HW1 6039   0.181   4.800   1.542
 1011SOL    HW2 6040   0.169   4.812   1.380
 1012SOL     OW 6041   1.347   4.783   1.234
 1012SOL    HW1 6042   1.371   4.720   1.160
 1012SOL    HW2 6043   1.257   4.823   1.216
 1013SOL     OW 6044   1.302   4.579   0.309
 1013SOL    HW1 6045   1.216   4.548   0.351
 1013SOL    HW2 6046   1.298   4.565   0.210
 1014SOL     OW 6047   0.083   4.982   1.022
 1014SOL    HW1 6048   0.078   4.981   1.122
 1014SOL    HW2 6049   0.000   4.941   0.984
 1015SOL     OW 6050   0.903   3.810   0.133
 1015SOL    HW1 6051   0.954   3.811   0.047
 1015SOL    HW2 6052   0.959   3.768   0.204
 1016SOL     OW 6053   1.726   3.859   0.523
 1016SOL    HW1 6054   1.799   3.842   0.456
 1016SOL    HW2 6055   1.695   3.772   0.561
 1017SOL     OW 6056   1.280   4.651   0.672
 1017SOL    HW1 6057   1.340   4.570   0.674
 1017SOL    HW2 6058   1.320   4.720   0.612
 1018SOL     OW 6059   1.841   3.899   0.963
 1018SOL    HW1 6060   1.880   3.814   0.927
 1018SOL    HW2 6061   1.743   3.901   0.944
 1019SOL     OW 6062   0.263   4.050   0.720
 1019SOL    HW1 6063   0.184   4.101   0.686
 1019SOL    HW2 6064   0.254   4.035   0.818
 1020SOL     OW 6065   0.822   4.726   1.372
 1020SOL    HW1 6066   0.862   4.725   1.280
 1020SOL    HW2 6067   0.832   4.818   1.412
 1021SOL     OW 6068   0.916   4.634   0.291
 1021SOL    HW1 6069   0.979   4.672   0.223
 1021SOL    HW2 6070   0.956   4.551   0.330
 1022SOL     OW 6071   0.372   5.012   1.490
 1022SOL    HW1 6072   0.359   5.105   1.456
 1022SOL    HW2 6073   0.288   4.960   1.477
 1023SOL     OW 6074   1.614   5.016   1.289
 1023SOL    HW1 6075   1.674   5.019   1.369
 1023SOL    HW2 6076   1.539   5.080   1.302
 1024SOL     OW 6077   1.039   4.822   0.696
 1024SOL    HW1 6078   0.969   4.775   0.750
 1024SOL    HW2 6079   1.098   4.754   0.653
 1025SOL     OW 6080   1.014   3.960   0.971
 1025SOL    HW1 6081   1.006   3.924   0.878
 1025SOL    HW2 6082   1.012   3.884   1.036
 1026SOL     OW 6083   1.709   4.109   1.381
 1026SOL    HW1 6084   1.782   4.178   1.385
 1026SOL    HW2 6085   1.737   4.034   1.322
 1027SOL     OW 6086   0.105   4.737   1.726
 1027SOL    HW1 6087   0.028   4.704   1.780
 1027SOL    HW2 6088   0.190   4.707   1.768
 1028SOL     OW 6089   0.672   3.927   1.489
 1028SOL    HW1 6090   0.762   3.911   1.449
 1028SOL    HW2 6091   0.680   3.932   1.588
 1029SOL     OW 6092   0.075   4.069   0.033
 1029SOL    HW1 6093  -0.017   4.041   0.004
 1029SOL    HW2 6094   0.106   4.146  -0.023
 1030SOL     OW 6095   1.440   4.580   1.398
 1030SOL    HW1 6096   1.383   4.632   1.335
 1030SOL    HW2 6097   1.536   4.592   1.374
 1031SOL     OW 6098   0.072   3.890   0.318
 1031SOL    HW1 6099   0.055   3.973   0.264
 1031SOL    HW2 6100   0.162   3.853   0.296
 1032SOL     OW 6101   0.613   4.566   1.431
 1032SOL    HW1 6102   0.669   4.647   1.414
 1032SOL    HW2 6103   0.672   4.486   1.434
 1033SOL     OW 6104   0.716   4.289   1.708
 1033SOL    HW1 6105   0.735   4.354   1.782
 1033SOL    HW2 6106   0.776   4.209   1.717
 1034SOL     OW 6107   1.450   4.944   1.633
 1034SOL    HW1 6108   1.441   4.934   1.732
 1034SOL    HW2 6109   1.546   4.937   1.607
 1035SOL     OW 6110   1.674   4.607   1.254
 1035SOL    HW1 6111   1.647   4.518   1.217
 1035SOL    HW2 6112   1.675   4.675   1.181
 1036SOL     OW 6113   1.225   4.049   0.449
 1036SOL    HW1 6114   1.290   3.975   0.438
 1036SOL    HW2 6115   1.245   4.099   0.533
 1037SOL     OW 6116   0.594   4.469   0.652
 1037SOL    HW1 6117   0.644   4.554   0.633
 1037SOL    HW2 6118   0.506   4.471   0.604
 1038SOL     OW 6119   1.777   4.066   1.642
 1038SOL    HW1 6120   1.760   4.097   1.548
 1038SOL    HW2 6121   1.693   4.029   1.680
 1039SOL     OW 6122   1.730   4.658   1.517
 1039SOL    HW1 6123   1.768   4.749   1.532
 1039SOL    HW2 6124   1.722   4.641   1.418
 1040SOL     OW 6125   0.859   4.680   0.861
 1040SOL    HW1 6126   0.913   4.611   0.909
 1040SOL    HW2 6127   0.827   4.749   0.927
 1041SOL     OW 6128   1.083   4.708   0.087
 1041SOL    HW1 6129   1.060   4.761   0.005
 1041SOL    HW2 6130   1.164   4.652   0.068
 1042SOL     OW 6131   0.079   4.964   0.653
 1042SOL    HW1 6132   0.078   4.917   0.741
 1042SOL    HW2 6133   0.161   4.936   0.602
 1043SOL     OW 6134   0.428   4.148   0.520
 1043SOL    HW1 6135   0.458   4.076   0.458
 1043SOL    HW2 6136   0.389   4.108   0.603
 1044SOL     OW 6137   0.317   4.271   1.280
 1044SOL    HW1 6138   0.355   4.212   1.352
 1044SOL    HW2 6139   0.357   4.245   1.192
 1045SOL     OW 6140   1.424   3.938   1.112
 1045SOL    HW1 6141   1.476   3.873   1.167
 1045SOL    HW2 6142   1.375   4.001   1.173
 1046SOL     OW 6143   1.001   3.758   1.154
 1046SOL    HW1 6144   0.938   3.686   1.123
 1046SOL    HW2 6145   1.094   3.722   1.154
 1047SOL     OW 6146   0.770   5.054   0.301
 1047SOL    HW1 6147   0.724   4.967   0.318
 1047SOL    HW2 6148   0.861   5.051   0.342
 1048SOL     OW 6149   1.352   3.776   0.168
 1048SOL    HW1 6150   1.387   3.735   0.084
 1048SOL    HW2 6151   1.262   3.738   0.188
 1049SOL     OW 6152   1.300   4.177   0.691
 1049SOL    HW1 6153   1.241   4.257   0.695
 1049SOL    HW2 6154   1.315   4.142   0.784
 1050SOL     OW 6155   1.593   3.945   0.882
 1050SOL    HW1 6156   1.509   3.944   0.936
 1050SOL    HW2 6157   1.595   4.028   0.826
 1051SOL     OW 6158   0.039   4.801   0.300
 1051SOL    HW1 6159   0.138   4.790   0.291
 1051SOL    HW2 6160  -0.001   4.715   0.332
 1052SOL     OW 6161   0.230   4.352   1.975
 1052SOL    HW1 6162   0.137   4.350   2.012
 1052SOL    HW2 6163   0.231   4.313   1.883
 1053SOL     OW 6164   0.225   3.999   2.858
 1053SOL    HW1 6165   0.260   3.982   2.950
 1053SOL    HW2 6166   0.137   3.954   2.846
 1054SOL     OW 6167   0.019   4.092   2.509
 1054SOL    HW1 6168  -0.063   4.135   2.548
 1054SOL    HW2 6169  -0.009   4.019   2.446
 1055SOL     OW 6170   1.135   4.427   2.579
 1055SOL    HW1 6171   1.192   4.505   2.554
 1055SOL    HW2 6172   1.075   4.453   2.655
 1056SOL     OW 6173   1.755   4.331   2.093
 1056SOL    HW1 6174   1.743   4.318   1.994
 1056SOL    HW2 6175   1.725   4.250   2.142
 1057SOL     OW 6176   0.768   4.868   2.885
 1057SOL    HW1 6177   0.690   4.885   2.945
 1057SOL    HW2 6178   0.802   4.955   2.849
 1058SOL     OW 6179   0.850   4.522   3.685
 1058SOL    HW1 6180   0.846   4.598   3.750
 1058SOL    HW2 6181   0.872   4.558   3.594
 1059SOL     OW 6182   0.685   4.736   2.527
 1059SOL    HW1 6183   0.754   4.720   2.597
 1059SOL    HW2 6184   0.612   4.793   2.565
 1060SOL     OW 6185   0.686   4.885   3.665
 1060SOL    HW1 6186   0.746   4.964   3.679
 1060SOL    HW2 6187   0.600   4.916   3.624
 1061SOL     OW 6188   0.438   4.116   3.361
 1061SOL    HW1 6189   0.520   4.060   3.370
 1061SOL    HW2 6190   0.357   4.058   3.365
 1062SOL     OW 6191   1.603   4.171   2.599
 1062SOL    HW1 6192   1.529   4.217   2.549
 1062SOL    HW2 6193   1.654   4.239   2.652
 1063SOL     OW 6194   0.240   4.815   2.748
 1063SOL    HW1 6195   0.254   4.731   2.800
 1063SOL    HW2 6196   0.185   4.879   2.803
 1064SOL     OW 6197   0.606   4.688   1.985
 1064SOL    HW1 6198   0.613   4.772   1.931
 1064SOL    HW2 6199   0.652   4.701   2.073
 1065SOL     OW 6200   0.122   4.367   2.425
 1065SOL    HW1 6201   0.077   4.279   2.442
 1065SOL    HW2 6202   0.121   4.421   2.509
 1066SOL     OW 6203   1.689   4.646   2.474
 1066SOL    HW1 6204   1.784   4.617   2.482
 1066SOL    HW2 6205   1.681   4.711   2.399
 1067SOL     OW 6206   1.641   4.832   2.294
 1067SOL    HW1 6207   1.727   4.834   2.242
 1067SOL    HW2 6208   1.655   4.879   2.382
 1068SOL     OW 6209   0.113   4.461   3.459
 1068SOL    HW1 6210   0.201   4.448   3.504
 1068SOL    HW2 6211   0.100   4.558   3.437
 1069SOL     OW 6212   1.293   4.952   3.285
 1069SOL    HW1 6213   1.330   4.879   3.227
 1069SOL    HW2 6214   1.345   4.957   3.370
 1070SOL     OW 6215   0.809   3.728   2.364
 1070SOL    HW1 6216   0.849   3.819   2.355
 1070SOL    HW2 6217   0.709   3.736   2.370
 1071SOL     OW 6218   0.197   4.700   3.126
 1071SOL    HW1 6219   0.286   4.655   3.112
 1071SOL    HW2 6220   0.124   4.635   3.107
 1072SOL     OW 6221   1.525   4.723   2.052
 1072SOL    HW1 6222   1.462   4.647   2.065
 1072SOL    HW2 6223   1.573   4.741   2.138
 1073SOL     OW 6224   0.317   3.975   3.663
 1073SOL    HW1 6225   0.388   4.046   3.669
 1073SOL    HW2 6226   0.229   4.014   3.691
 1074SOL     OW 6227   0.598   4.453   2.132
 1074SOL    HW1 6228   0.622   4.522   2.064
 1074SOL    HW2 6229   0.520   4.486   2.186
 1075SOL     OW 6230   1.281   4.069   2.806
 1075SOL    HW1 6231   1.195   4.019   2.793
 1075SOL    HW2 6232   1.343   4.015   2.862
 1076SOL     OW 6233   0.807   4.329   3.327
 1076SOL    HW1 6234   0.760   4.326   3.416
 1076SOL    HW2 6235   0.756   4.274   3.261
 1077SOL     OW 6236   1.394   4.193   3.536
 1077SOL    HW1 6237   1.374   4.236   3.624
 1077SOL    HW2 6238   1.472   4.131   3.545
 1078SOL     OW 6239   0.973   4.614   3.434
 1078SOL    HW1 6240   1.019   4.530   3.405
 1078SOL    HW2 6241   0.917   4.648   3.359
 1079SOL     OW 6242   0.991   4.134   3.104
 1079SOL    HW1 6243   0.914   4.168   3.158
 1079SOL    HW2 6244   0.957   4.083   3.025
 1080SOL     OW 6245   1.041   4.425   2.291
 1080SOL    HW1 6246   1.067   4.421   2.387
 1080SOL    HW2 6247   0.956   4.374   2.277
 1081SOL     OW 6248   0.076   4.535   2.651
 1081SOL    HW1 6249   0.175   4.523   2.660
 1081SOL    HW2 6250   0.052   4.630   2.672
 1082SOL     OW 6251   1.719   4.309   3.693
 1082SOL    HW1 6252   1.693   4.398   3.657
 1082SOL    HW2 6253   1.717   4.241   3.620
 1083SOL     OW 6254   1.362   4.868   2.407
 1083SOL    HW1 6255   1.445   4.839   2.359
 1083SOL    HW2 6256   1.313   4.935   2.351
 1084SOL     OW 6257   0.550   3.920   2.747
 1084SOL    HW1 6258   0.545   3.915   2.847
 1084SOL    HW2 6259   0.552   4.016   2.718
 1085SOL     OW 6260   1.795   4.790   2.735
 1085SOL    HW1 6261   1.733   4.775   2.659
 1085SOL    HW2 6262   1.743   4.801   2.820
 1086SOL     OW 6263   0.321   4.667   2.104
 1086SOL    HW1 6264   0.403   4.706   2.062
 1086SOL    HW2 6265   0.294   4.585   2.055
 1087SOL     OW 6266   1.458   4.459   2.590
 1087SOL    HW1 6267   1.453   4.394   2.665
 1087SOL    HW2 6268   1.538   4.518   2.603
 1088SOL     OW 6269   0.202   4.009   3.360
 1088SOL    HW1 6270   0.122   4.069   3.347
 1088SOL    HW2 6271   0.192   3.960   3.446
 1089SOL     OW 6272   0.382   4.424   2.342
 1089SOL    HW1 6273   0.427   4.334   2.339
 1089SOL    HW2 6274   0.288   4.413   2.375
 1090SOL     OW 6275   1.547   3.946   3.591
 1090SOL    HW1 6276   1.542   3.983   3.683
 1090SOL    HW2 6277   1.475   3.877   3.579
 1091SOL     OW 6278   0.781   3.988   3.611
 1091SOL    HW1 6279   0.848   3.927   3.654
 1091SOL    HW2 6280   0.708   4.007   3.676
 1092SOL     OW 6281   1.351   4.314   3.295
 1092SOL    HW1 6282   1.379   4.271   3.380
 1092SOL    HW2 6283   1.376   4.410   3.296
 1093SOL     OW 6284   0.922   4.227   2.761
 1093SOL    HW1 6285   0.897   4.218   2.665
 1093SOL    HW2 6286   0.970   4.145   2.792
 1094SOL     OW 6287   0.539   3.788   2.374
 1094SOL    HW1 6288   0.458   3.789   2.432
 1094SOL    HW2 6289   0.542   3.871   2.319
 1095SOL     OW 6290   0.297   3.759   2.033
 1095SOL    HW1 6291   0.346   3.843   2.012
 1095SOL    HW2 6292   0.359   3.694   2.078
 1096SOL     OW 6293   0.935   3.960   2.342
 1096SOL    HW1 6294   0.887   4.001   2.264
 1096SOL    HW2 6295   1.034   3.958   2.323
 1097SOL     OW 6296   1.076   4.407   3.326
 1097SOL    HW1 6297   0.996   4.346   3.329
 1097SOL    HW2 6298   1.157   4.354   3.302
 1098SOL     OW 6299   0.459   4.876   2.603
 1098SOL    HW1 6300   0.388   4.849   2.668
 1098SOL    HW2 6301   0.433   4.848   2.510
 1099SOL     OW 6302   1.032   4.273   1.878
 1099SOL    HW1 6303   0.991   4.355   1.839
 1099SOL    HW2 6304   1.096   4.299   1.951
 1100SOL     OW 6305   0.078   4.280   3.248
 1100SOL    HW1 6306   0.170   4.279   3.207
 1100SOL    HW2 6307   0.072   4.354   3.315
 1101SOL     OW 6308   0.561   3.946   3.009
 1101SOL    HW1 6309   0.599   3.862   3.046
 1101SOL    HW2 6310   0.473   3.965   3.053
 1102SOL     OW 6311   0.866   4.178   2.504
 1102SOL    HW1 6312   0.834   4.250   2.442
 1102SOL    HW2 6313   0.890   4.097   2.451
 1103SOL     OW 6314   1.017   3.763   2.615
 1103SOL    HW1 6315   0.945   3.768   2.546
 1103SOL    HW2 6316   0.993   3.694   2.684
 1104SOL     OW 6317   1.429   4.897   2.729
 1104SOL    HW1 6318   1.374   4.813   2.722
 1104SOL    HW2 6319   1.455   4.926   2.637
 1105SOL     OW 6320   1.466   4.314   2.854
 1105SOL    HW1 6321   1.436   4.219   2.861
 1105SOL    HW2 6322   1.539   4.330   2.920
 1106SOL     OW 6323   1.857   4.557   2.239
 1106SOL    HW1 6324   1.899   4.493   2.303
 1106SOL    HW2 6325   1.819   4.506   2.161
 1107SOL     OW 6326   1.390   4.299   1.940
 1107SOL    HW1 6327   1.336   4.278   2.021
 1107SOL    HW2 6328   1.481   4.258   1.949
 1108SOL     OW 6329   0.527   3.980   2.190
 1108SOL    HW1 6330   0.554   3.921   2.115
 1108SOL    HW2 6331   0.527   4.075   2.159
 1109SOL     OW 6332   1.754   4.947   3.450
 1109SOL    HW1 6333   1.845   4.908   3.437
 1109SOL    HW2 6334   1.762   5.043   3.474
 1110SOL     OW 6335   1.638   4.823   2.941
 1110SOL    HW1 6336   1.643   4.904   3.000
 1110SOL    HW2 6337   1.552   4.825   2.890
 1111SOL     OW 6338   0.915   3.813   3.264
 1111SOL    HW1 6339   0.940   3.793   3.169
 1111SOL    HW2 6340   0.987   3.869   3.306
 1112SOL     OW 6341   0.980   4.840   3.581
 1112SOL    HW1 6342   0.881   4.846   3.591
 1112SOL    HW2 6343   1.003   4.760   3.525
 1113SOL     OW 6344   0.705   4.774   2.230
 1113SOL    HW1 6345   0.691   4.781   2.329
 1113SOL    HW2 6346   0.789   4.723   2.212
 1114SOL     OW 6347   0.410   4.537   3.113
 1114SOL    HW1 6348   0.496   4.549   3.163
 1114SOL    HW2 6349   0.368   4.450   3.140
 1115SOL     OW 6350   1.274   4.110   3.124
 1115SOL    HW1 6351   1.295   4.184   3.188
 1115SOL    HW2 6352   1.185   4.127   3.081
 1116SOL     OW 6353   0.367   4.824   2.363
 1116SOL    HW1 6354   0.360   4.907   2.307
 1116SOL    HW2 6355   0.371   4.744   2.303
 1117SOL     OW 6356   0.566   4.261   2.727
 1117SOL    HW1 6357   0.578   4.327   2.653
 1117SOL    HW2 6358   0.612   4.295   2.810
 1118SOL     OW 6359   1.582   4.363   2.334
 1118SOL    HW1 6360   1.551   4.424   2.407
 1118SOL    HW2 6361   1.632   4.415   2.265
 1119SOL     OW 6362   0.402   4.475   3.460
 1119SOL    HW1 6363   0.470   4.530   3.413
 1119SOL    HW2 6364   0.442   4.387   3.487
 1120SOL     OW 6365   1.587   4.503   3.532
 1120SOL    HW1 6366   1.495   4.541   3.527
 1120SOL    HW2 6367   1.647   4.550   3.467
 1121SOL     OW 6368   1.013   3.829   3.632
 1121SOL    HW1 6369   1.019   3.914   3.580
 1121SOL    HW2 6370   1.045   3.753   3.575
 1122SOL     OW 6371   0.504   3.774   3.602
 1122SOL    HW1 6372   0.462   3.717   3.532
 1122SOL    HW2 6373   0.438   3.843   3.634
 1123SOL     OW 6374   0.573   4.594   2.891
 1123SOL    HW1 6375   0.617   4.683   2.882
 1123SOL    HW2 6376   0.510   4.594   2.968
 1124SOL     OW 6377   1.360   4.586   2.907
 1124SOL    HW1 6378   1.285   4.586   2.841
 1124SOL    HW2 6379   1.397   4.494   2.916
 1125SOL     OW 6380   1.209   4.249   2.137
 1125SOL    HW1 6381   1.222   4.165   2.191
 1125SOL    HW2 6382   1.180   4.323   2.197
 1126SOL     OW 6383   0.307   3.937   3.093
 1126SOL    HW1 6384   0.284   3.974   3.183
 1126SOL    HW2 6385   0.277   3.842   3.087
 1127SOL     OW 6386   0.037   5.034   3.144
 1127SOL    HW1 6387   0.090   4.985   3.212
 1127SOL    HW2 6388   0.059   5.132   3.149
 1128SOL     OW 6389   0.732   4.358   2.926
 1128SOL    HW1 6390   0.791   4.332   2.850
 1128SOL    HW2 6391   0.704   4.454   2.915
 1129SOL     OW 6392   1.728   4.659   3.716
 1129SOL    HW1 6393   1.682   4.652   3.627
 1129SOL    HW2 6394   1.666   4.703   3.782
 1130SOL     OW 6395   0.307   3.787   2.480
 1130SOL    HW1 6396   0.296   3.881   2.513
 1130SOL    HW2 6397   0.302   3.724   2.557
 1131SOL     OW 6398   1.622   4.091   2.236
 1131SOL    HW1 6399   1.624   4.015   2.300
 1131SOL    HW2 6400   1.574   4.168   2.276
 1132SOL     OW 6401   1.023   4.490   2.828
 1132SOL    HW1 6402   1.038   4.511   2.924
 1132SOL    HW2 6403   0.993   4.395   2.819
 1133SOL     OW 6404   0.350   4.622   3.666
 1133SOL    HW1 6405   0.426   4.666   3.714
 1133SOL    HW2 6406   0.385   4.575   3.584
 1134SOL     OW 6407   1.540   3.998   1.987
 1134SOL    HW1 6408   1.479   3.923   2.010
 1134SOL    HW2 6409   1.562   4.050   2.070
 1135SOL     OW 6410   1.303   4.562   1.904
 1135SOL    HW1 6411   1.337   4.469   1.919
 1135SOL    HW2 6412   1.321   4.589   1.809
 1136SOL     OW 6413   0.319   4.534   2.811
 1136SOL    HW1 6414   0.412   4.570   2.816
 1136SOL    HW2 6415   0.313   4.449   2.863
 1137SOL     OW 6416   0.339   4.233   2.868
 1137SOL    HW1 6417   0.287   4.150   2.851
 1137SOL    HW2 6418   0.416   4.238   2.804
 1138SOL     OW 6419   1.138   4.104   3.540
 1138SOL    HW1 6420   1.093   4.167   3.604
 1138SOL    HW2 6421   1.231   4.135   3.523
 1139SOL     OW 6422   1.160   3.931   3.339
 1139SOL    HW1 6423   1.160   3.995   3.416
 1139SOL    HW2 6424   1.188   3.979   3.256
 1140SOL     OW 6425   0.008   5.050   2.062
 1140SOL    HW1 6426  -0.085   5.071   2.031
 1140SOL    HW2 6427   0.018   4.951   2.075
 1141SOL     OW 6428   1.002   4.520   3.100
 1141SOL    HW1 6429   1.043   4.488   3.186
 1141SOL    HW2 6430   0.906   4.493   3.097
 1142SOL     OW 6431   0.040   4.268   2.976
 1142SOL    HW1 6432   0.125   4.235   2.935
 1142SOL    HW2 6433   0.053   4.283   3.074
 1143SOL     OW 6434   0.189   4.244   3.584
 1143SOL    HW1 6435   0.248   4.204   3.514
 1143SOL    HW2 6436   0.131   4.315   3.543
 1144SOL     OW 6437   1.369   4.674   3.522
 1144SOL    HW1 6438   1.408   4.763   3.542
 1144SOL    HW2 6439   1.379   4.654   3.425
 1145SOL     OW 6440   1.657   4.328   3.068
 1145SOL    HW1 6441   1.619   4.259   3.130
 1145SOL    HW2 6442   1.739   4.292   3.024
 1146SOL     OW 6443   0.671   4.188   3.131
 1146SOL    HW1 6444   0.637   4.099   3.101
 1146SOL    HW2 6445   0.697   4.242   3.051
 1147SOL     OW 6446   0.473   4.224   2.053
 1147SOL    HW1 6447   0.534   4.304   2.057
 1147SOL    HW2 6448   0.378   4.255   2.060
 1148SOL     OW 6449   0.159   4.861   3.328
 1148SOL    HW1 6450   0.181   4.800   3.404
 1148SOL    HW2 6451   0.169   4.812   3.242
 1149SOL     OW 6452   1.347   4.783   3.096
 1149SOL    HW1 6453   1.371   4.720   3.022
 1149SOL    HW2 6454   1.257   4.823   3.078
 1150SOL     OW 6455   1.302   4.579   2.171
 1150SOL    HW1 6456   1.216   4.548   2.213
 1150SOL    HW2 6457   1.298   4.565   2.072
 1151SOL     OW 6458   0.083   4.982   2.884
 1151SOL    HW1 6459   0.078   4.981   2.984
 1151SOL    HW2 6460   0.000   4.941   2.846
 1152SOL     OW 6461   1.280   4.651   2.534
 1152SOL    HW1 6462   1.340   4.570   2.536
 1152SOL    HW2 6463   1.320   4.720   2.474
 1153SOL     OW 6464   0.263   4.050   2.582
 1153SOL    HW1 6465   0.184   4.101   2.548
 1153SOL    HW2 6466   0.254   4.035   2.680
 1154SOL     OW 6467   0.822   4.726   3.234
 1154SOL    HW1 6468   0.862   4.725   3.142
 1154SOL    HW2 6469   0.832   4.818   3.274
 1155SOL     OW 6470   0.916   4.634   2.153
 1155SOL    HW1 6471   0.979   4.672   2.085
 1155SOL    HW2 6472   0.956   4.551   2.192
 1156SOL     OW 6473   0.372   5.012   3.352
 1156SOL    HW1 6474   0.359   5.105   3.318
 1156SOL    HW2 6475   0.288   4.960   3.339
 1157SOL     OW 6476   1.614   5.016   3.151
 1157SOL    HW1 6477   1.674   5.019   3.231
 1157SOL    HW2 6478   1.539   5.080   3.164
 1158SOL     OW 6479   1.039   4.822   2.558
 1158SOL    HW1 6480   0.969   4.775   2.612
 1158SOL    HW2 6481   1.098   4.754   2.515
 1159SOL     OW 6482   1.014   3.960   2.833
 1159SOL    HW1 6483   1.006   3.924   2.740
 1159SOL    HW2 6484   1.012   3.884   2.898
 1160SOL     OW 6485   1.709   4.109   3.243
 1160SOL    HW1 6486   1.782   4.178   3.247
 1160SOL    HW2 6487   1.737   4.034   3.184
 1161SOL     OW 6488   0.105   4.737   3.588
 1161SOL    HW1 6489   0.028   4.704   3.642
 1161SOL    HW2 6490   0.190   4.707   3.630
 1162SOL     OW 6491   0.672   3.927   3.351
 1162SOL    HW1 6492   0.762   3.911   3.311
 1162SOL    HW2 6493   0.680   3.932   3.450
 1163SOL     OW 6494   0.075   4.069   1.895
 1163SOL    HW1 6495  -0.017   4.041   1.866
 1163SOL    HW2 6496   0.106   4.146   1.839
 1164SOL     OW 6497   1.440   4.580   3.260
 1164SOL    HW1 6498   1.383   4.632   3.197
 1164SOL    HW2 6499   1.536   4.592   3.236
 1165SOL     OW 6500   0.072   3.890   2.180
 1165SOL    HW1 6501   0.055   3.973   2.126
 1165SOL    HW2 6502   0.162   3.853   2.158
 1166SOL     OW 6503   0.613   4.566   3.293
 1166SOL    HW1 6504   0.669   4.647   3.276
 1166SOL    HW2 6505   0.672   4.486   3.296
 1167SOL     OW 6506   0.716   4.289   3.570
 1167SOL    HW1 6507   0.735   4.354   3.644
 1167SOL    HW2 6508   0.776   4.209   3.579
 1168SOL     OW 6509   1.450   4.944   3.495
 1168SOL    HW1 6510   1.441   4.934   3.594
 1168SOL    HW2 6511   1.546   4.937   3.469
 1169SOL     OW 6512   1.674   4.607   3.116
 1169SOL    HW1 6513   1.647   4.518   3.079
 1169SOL    HW2 6514   1.675   4.675   3.043
 1170SOL     OW 6515   1.225   4.049   2.311
 1170SOL    HW1 6516   1.290   3.975   2.300
 1170SOL    HW2 6517   1.245   4.099   2.395
 1171SOL     OW 6518   0.594   4.469   2.514
 1171SOL    HW1 6519   0.644   4.554   2.495
 1171SOL    HW2 6520   0.506   4.471   2.466
 1172SOL     OW 6521   1.777   4.066   3.504
 1172SOL    HW1 6522   1.760   4.097   3.410
 1172SOL    HW2 6523   1.693   4.029   3.542
 1173SOL     OW 6524   1.730   4.658   3.379
 1173SOL    HW1 6525   1.768   4.749   3.394
 1173SOL    HW2 6526   1.722   4.641   3.280
 1174SOL     OW 6527   0.859   4.680   2.723
 1174SOL    HW1 6528   0.913   4.611   2.771
 1174SOL    HW2 6529   0.827   4.749   2.789
 1175SOL     OW 6530   1.083   4.708   1.949
 1175SOL    HW1 6531   1.060   4.761   1.867
 1175SOL    HW2 6532   1.164   4.652   1.930
 1176SOL     OW 6533   0.079   4.964   2.515
 1176SOL    HW1 6534   0.078   4.917   2.603
 1176SOL    HW2 6535   0.161   4.936   2.464
 1177SOL     OW 6536   0.428   4.148   2.382
 1177SOL    HW1 6537   0.458   4.076   2.320
 1177SOL    HW2 6538   0.389   4.108   2.465
 1178SOL     OW 6539   0.317   4.271   3.142
 1178SOL    HW1 6540   0.355   4.212   3.214
 1178SOL    HW2 6541   0.357   4.245   3.054
 1179SOL     OW 6542   1.424   3.938   2.974
 1179SOL    HW1 6543   1.476   3.873   3.029
 1179SOL    HW2 6544   1.375   4.001   3.035
 1180SOL     OW 6545   1.001   3.758   3.016
 1180SOL    HW1 6546   0.938   3.686   2.985
 1180SOL    HW2 6547   1.094   3.722   3.016
 1181SOL     OW 6548   0.770   5.054   2.163
 1181SOL    HW1 6549   0.724   4.967   2.180
 1181SOL    HW2 6550   0.861   5.051   2.204
 1182SOL     OW 6551   1.300   4.177   2.553
 1182SOL    HW1 6552   1.241   4.257   2.557
 1182SOL    HW2 6553   1.315   4.142   2.646
 1183SOL     OW 6554   1.593   3.945   2.744
 1183SOL    HW1 6555   1.509   3.944   2.798
 1183SOL    HW2 6556   1.595   4.028   2.688
 1184SOL     OW 6557   0.039   4.801   2.162
 1184SOL    HW1 6558   0.138   4.790   2.153
 1184SOL    HW2 6559  -0.001   4.715   2.194
 1185SOL     OW 6560   0.230   4.352   3.837
 1185SOL    HW1 6561   0.137   4.350   3.874
 1185SOL    HW2 6562   0.231   4.313   3.745
 1186SOL     OW 6563   0.225   3.999   4.720
 1186SOL    HW1 6564   0.260   3.982   4.812
 1186SOL    HW2 6565   0.137   3.954   4.708
 1187SOL     OW 6566   0.019   4.092   4.371
 1187SOL    HW1 6567  -0.063   4.135   4.410
 1187SOL    HW2 6568  -0.009   4.019   4.308
 1188SOL     OW 6569   1.135   4.427   4.441
 1188SOL    HW1 6570   1.192   4.505   4.416
 1188SOL    HW2 6571   1.075   4.453   4.517
 1189SOL     OW 6572   1.755   4.331   3.955
 1189SOL    HW1 6573   1.743   4.318   3.856
 1189SOL    HW2 6574   1.725   4.250   4.004
 1190SOL     OW 6575   0.768   4.868   4.747
 1190SOL    HW1 6576   0.690   4.885   4.807
 1190SOL    HW2 6577   0.802   4.955   4.711
 1191SOL     OW 6578   0.685   4.736   4.389
 1191SOL    HW1 6579   0.754   4.720   4.459
 1191SOL    HW2 6580   0.612   4.793   4.427
 1192SOL     OW 6581   1.603   4.171   4.461
 1192SOL    HW1 6582   1.529   4.217   4.411
 1192SOL    HW2 6583   1.654   4.239   4.514
 1193SOL     OW 6584   0.240   4.815   4.610
 1193SOL    HW1 6585   0.254   4.731   4.662
 1193SOL    HW2 6586   0.185   4.879   4.665
 1194SOL     OW 6587   0.606   4.688   3.847
 1194SOL    HW1 6588   0.613   4.772   3.793
 1194SOL    HW2 6589   0.652   4.701   3.935
 1195SOL     OW 6590   0.122   4.367   4.287
 1195SOL    HW1 6591   0.077   4.279   4.304
 1195SOL    HW2 6592   0.121   4.421   4.371
 1196SOL     OW 6593   1.689   4.646   4.336
 1196SOL    HW1 6594   1.784   4.617   4.344
 1196SOL    HW2 6595   1.681   4.711   4.261
 1197SOL     OW 6596   1.641   4.832   4.156
 1197SOL    HW1 6597   1.727   4.834   4.104
 1197SOL    HW2 6598   1.655   4.879   4.244
 1198SOL     OW 6599   0.809   3.728   4.226
 1198SOL    HW1 6600   0.849   3.819   4.217
 1198SOL    HW2 6601   0.709   3.736   4.232
 1199SOL     OW 6602   0.197   4.700   4.988
 1199SOL    HW1 6603   0.286   4.655   4.974
 1199SOL    HW2 6604   0.124   4.635   4.969
 1200SOL     OW 6605   1.525   4.723   3.914
 1200SOL    HW1 6606   1.462   4.647   3.927
 1200SOL    HW2 6607   1.573   4.741   4.000
 1201SOL     OW 6608   0.598   4.453   3.994
 1201SOL    HW1 6609   0.622   4.522   3.926
 1201SOL    HW2 6610   0.520   4.486   4.048
 1202SOL     OW 6611   1.281   4.069   4.668
 1202SOL    HW1 6612   1.195   4.019   4.655
 1202SOL    HW2 6613   1.343   4.015   4.724
 1203SOL     OW 6614   1.041   4.425   4.153
 1203SOL    HW1 6615   1.067   4.421   4.249
 1203SOL    HW2 6616   0.956   4.374   4.139
 1204SOL     OW 6617   0.076   4.535   4.513
 1204SOL    HW1 6618   0.175   4.523   4.522
 1204SOL    HW2 6619   0.052   4.630   4.534
 1205SOL     OW 6620   0.865   4.072   3.919
 1205SOL    HW1 6621   0.924   4.135   3.870
 1205SOL    HW2 6622   0.884   3.978   3.890
 1206SOL     OW 6623   1.362   4.868   4.269
 1206SOL    HW1 6624   1.445   4.839   4.221
 1206SOL    HW2 6625   1.313   4.935   4.213
 1207SOL     OW 6626   0.550   3.920   4.609
 1207SOL    HW1 6627   0.545   3.915   4.709
 1207SOL    HW2 6628   0.552   4.016   4.580
 1208SOL     OW 6629   1.795   4.790   4.597
 1208SOL    HW1 6630   1.733   4.775   4.521
 1208SOL    HW2 6631   1.743   4.801   4.682
 1209SOL     OW 6632   0.321   4.667   3.966
 1209SOL    HW1 6633   0.403   4.706   3.924
 1209SOL    HW2 6634   0.294   4.585   3.917
 1210SOL     OW 6635   1.458   4.459   4.452
 1210SOL    HW1 6636   1.453   4.394   4.527
 1210SOL    HW2 6637   1.538   4.518   4.465
 1211SOL     OW 6638   1.400   3.831   4.150
 1211SOL    HW1 6639   1.376   3.794   4.060
 1211SOL    HW2 6640   1.499   3.847   4.154
 1212SOL     OW 6641   0.382   4.424   4.204
 1212SOL    HW1 6642   0.427   4.334   4.201
 1212SOL    HW2 6643   0.288   4.413   4.237
 1213SOL     OW 6644   0.614   3.846   3.841
 1213SOL    HW1 6645   0.712   3.824   3.848
 1213SOL    HW2 6646   0.583   3.829   3.748
 1214SOL     OW 6647   0.922   4.227   4.623
 1214SOL    HW1 6648   0.897   4.218   4.527
 1214SOL    HW2 6649   0.970   4.145   4.654
 1215SOL     OW 6650   0.539   3.788   4.236
 1215SOL    HW1 6651   0.458   3.789   4.294
 1215SOL    HW2 6652   0.542   3.871   4.181
 1216SOL     OW 6653   0.297   3.759   3.895
 1216SOL    HW1 6654   0.346   3.843   3.874
 1216SOL    HW2 6655   0.359   3.694   3.940
 1217SOL     OW 6656   0.935   3.960   4.204
 1217SOL    HW1 6657   0.887   4.001   4.126
 1217SOL    HW2 6658   1.034   3.958   4.185
 1218SOL     OW 6659   0.459   4.876   4.465
 1218SOL    HW1 6660   0.388   4.849   4.530
 1218SOL    HW2 6661   0.433   4.848   4.372
 1219SOL     OW 6662   1.032   4.273   3.740
 1219SOL    HW1 6663   0.991   4.355   3.701
 1219SOL    HW2 6664   1.096   4.299   3.813
 1220SOL     OW 6665   0.866   4.178   4.366
 1220SOL    HW1 6666   0.834   4.250   4.304
 1220SOL    HW2 6667   0.890   4.097   4.313
 1221SOL     OW 6668   1.017   3.763   4.477
 1221SOL    HW1 6669   0.945   3.768   4.408
 1221SOL    HW2 6670   0.993   3.694   4.546
 1222SOL     OW 6671   1.429   4.897   4.591
 1222SOL    HW1 6672   1.374   4.813   4.584
 1222SOL    HW2 6673   1.455   4.926   4.499
 1223SOL     OW 6674   1.466   4.314   4.716
 1223SOL    HW1 6675   1.436   4.219   4.723
 1223SOL    HW2 6676   1.539   4.330   4.782
 1224SOL     OW 6677   1.857   4.557   4.101
 1224SOL    HW1 6678   1.899   4.493   4.165
 1224SOL    HW2 6679   1.819   4.506   4.023
 1225SOL     OW 6680   1.390   4.299   3.802
 1225SOL    HW1 6681   1.336   4.278   3.883
 1225SOL    HW2 6682   1.481   4.258   3.811
 1226SOL     OW 6683   0.527   3.980   4.052
 1226SOL    HW1 6684   0.554   3.921   3.977
 1226SOL    HW2 6685   0.527   4.075   4.021
 1227SOL     OW 6686   1.638   4.823   4.803
 1227SOL    HW1 6687   1.643   4.904   4.862
 1227SOL    HW2 6688   1.552   4.825   4.752
 1228SOL     OW 6689   0.705   4.774   4.092
 1228SOL    HW1 6690   0.691   4.781   4.191
 1228SOL    HW2 6691   0.789   4.723   4.074
 1229SOL     OW 6692   0.410   4.537   4.975
 1229SOL    HW1 6693   0.496   4.549   5.025
 1229SOL    HW2 6694   0.368   4.450   5.002
 1230SOL     OW 6695   0.367   4.824   4.225
 1230SOL    HW1 6696   0.360   4.907   4.169
 1230SOL    HW2 6697   0.371   4.744   4.165
 1231SOL     OW 6698   0.566   4.261   4.589
 1231SOL    HW1 6699   0.578   4.327   4.515
 1231SOL    HW2 6700   0.612   4.295   4.672
 1232SOL     OW 6701   1.582   4.363   4.196
 1232SOL    HW1 6702   1.551   4.424   4.269
 1232SOL    HW2 6703   1.632   4.415   4.127
 1233SOL     OW 6704   0.573   4.594   4.753
 1233SOL    HW1 6705   0.617   4.683   4.744
 1233SOL    HW2 6706   0.510   4.594   4.830
 1234SOL     OW 6707   1.360   4.586   4.769
 1234SOL    HW1 6708   1.285   4.586   4.703
 1234SOL    HW2 6709   1.397   4.494   4.778
 1235SOL     OW 6710   1.209   4.249   3.999
 1235SOL    HW1 6711   1.222   4.165   4.053
 1235SOL    HW2 6712   1.180   4.323   4.059
 1236SOL     OW 6713   0.307   3.937   4.955
 1236SOL    HW1 6714   0.284   3.974   5.045
 1236SOL    HW2 6715   0.277   3.842   4.949
 1237SOL     OW 6716   0.037   5.034   5.006
 1237SOL    HW1 6717   0.090   4.985   5.074
 1237SOL    HW2 6718   0.059   5.132   5.011
 1238SOL     OW 6719   0.732   4.358   4.788
 1238SOL    HW1 6720   0.791   4.332   4.712
 1238SOL    HW2 6721   0.704   4.454   4.777
 1239SOL     OW 6722   0.307   3.787   4.342
 1239SOL    HW1 6723   0.296   3.881   4.375
 1239SOL    HW2 6724   0.302   3.724   4.419
 1240SOL     OW 6725   1.622   4.091   4.098
 1240SOL    HW1 6726   1.624   4.015   4.162
 1240SOL    HW2 6727   1.574   4.168   4.138
 1241SOL     OW 6728   1.023   4.490   4.690
 1241SOL    HW1 6729   1.038   4.511   4.786
 1241SOL    HW2 6730   0.993   4.395   4.681
 1242SOL     OW 6731   1.540   3.998   3.849
 1242SOL    HW1 6732   1.479   3.923   3.872
 1242SOL    HW2 6733   1.562   4.050   3.932
 1243SOL     OW 6734   1.303   4.562   3.766
 1243SOL    HW1 6735   1.337   4.469   3.781
 1243SOL    HW2 6736   1.321   4.589   3.671
 1244SOL     OW 6737   0.319   4.534   4.673
 1244SOL    HW1 6738   0.412   4.570   4.678
 1244SOL    HW2 6739   0.313   4.449   4.725
 1245SOL     OW 6740   0.339   4.233   4.730
 1245SOL    HW1 6741   0.287   4.150   4.713
 1245SOL    HW2 6742   0.416   4.238   4.666
 1246SOL     OW 6743   1.160   3.931   5.201
 1246SOL    HW1 6744   1.160   3.995   5.278
 1246SOL    HW2 6745   1.188   3.979   5.118
 1247SOL     OW 6746   0.008   5.050   3.924
 1247SOL    HW1 6747  -0.085   5.071   3.893
 1247SOL    HW2 6748   0.018   4.951   3.937
 1248SOL     OW 6749   1.002   4.520   4.962
 1248SOL    HW1 6750   1.043   4.488   5.048
 1248SOL    HW2 6751   0.906   4.493   4.959
 1249SOL     OW 6752   0.040   4.268   4.838
 1249SOL    HW1 6753   0.125   4.235   4.797
 1249SOL    HW2 6754   0.053   4.283   4.936
 1250SOL     OW 6755   0.815   4.296   4.049
 1250SOL    HW1 6756   0.822   4.207   4.003
 1250SOL    HW2 6757   0.721   4.330   4.041
 1251SOL     OW 6758   1.657   4.328   4.930
 1251SOL    HW1 6759   1.619   4.259   4.992
 1251SOL    HW2 6760   1.739   4.292   4.886
 1252SOL     OW 6761   0.671   4.188   4.993
 1252SOL    HW1 6762   0.637   4.099   4.963
 1252SOL    HW2 6763   0.697   4.242   4.913
 1253SOL     OW 6764   0.473   4.224   3.915
 1253SOL    HW1 6765   0.534   4.304   3.919
 1253SOL    HW2 6766   0.378   4.255   3.922
 1254SOL     OW 6767   1.347   4.783   4.958
 1254SOL    HW1 6768   1.371   4.720   4.884
 1254SOL    HW2 6769   1.257   4.823   4.940
 1255SOL     OW 6770   1.302   4.579   4.033
 1255SOL    HW1 6771   1.216   4.548   4.075
 1255SOL    HW2 6772   1.298   4.565   3.934
 1256SOL     OW 6773   0.083   4.982   4.746
 1256SOL    HW1 6774   0.078   4.981   4.846
 1256SOL    HW2 6775   0.000   4.941   4.708
 1257SOL     OW 6776   1.726   3.859   4.247
 1257SOL    HW1 6777   1.799   3.842   4.180
 1257SOL    HW2 6778   1.695   3.772   4.285
 1258SOL     OW 6779   1.280   4.651   4.396
 1258SOL    HW1 6780   1.340   4.570   4.398
 1258SOL    HW2 6781   1.320   4.720   4.336
 1259SOL     OW 6782   1.841   3.899   4.687
 1259SOL    HW1 6783   1.880   3.814   4.651
 1259SOL    HW2 6784   1.743   3.901   4.668
 1260SOL     OW 6785   0.263   4.050   4.444
 1260SOL    HW1 6786   0.184   4.101   4.410
 1260SOL    HW2 6787   0.254   4.035   4.542
 1261SOL     OW 6788   0.822   4.726   5.096
 1261SOL    HW1 6789   0.862   4.725   5.004
 1261SOL    HW2 6790   0.832   4.818   5.136
 1262SOL     OW 6791   0.916   4.634   4.015
 1262SOL    HW1 6792   0.979   4.672   3.947
 1262SOL    HW2 6793   0.956   4.551   4.054
 1263SOL     OW 6794   1.614   5.016   5.013
 1263SOL    HW1 6795   1.674   5.019   5.093
 1263SOL    HW2 6796   1.539   5.080   5.026
 1264SOL     OW 6797   1.039   4.822   4.420
 1264SOL    HW1 6798   0.969   4.775   4.474
 1264SOL    HW2 6799   1.098   4.754   4.377
 1265SOL     OW 6800   1.014   3.960   4.695
 1265SOL    HW1 6801   1.006   3.924   4.602
 1265SOL    HW2 6802   1.012   3.884   4.760
 1266SOL     OW 6803   1.709   4.109   5.105
 1266SOL    HW1 6804   1.782   4.178   5.109
 1266SOL    HW2 6805   1.737   4.034   5.046
 1267SOL     OW 6806   0.075   4.069   3.757
 1267SOL    HW1 6807  -0.017   4.041   3.728
 1267SOL    HW2 6808   0.106   4.146   3.701
 1268SOL     OW 6809   0.072   3.890   4.042
 1268SOL    HW1 6810   0.055   3.973   3.988
 1268SOL    HW2 6811   0.162   3.853   4.020
 1269SOL     OW 6812   1.674   4.607   4.978
 1269SOL    HW1 6813   1.647   4.518   4.941
 1269SOL    HW2 6814   1.675   4.675   4.905
 1270SOL     OW 6815   1.225   4.049   4.173
 1270SOL    HW1 6816   1.290   3.975   4.162
 1270SOL    HW2 6817   1.245   4.099   4.257
 1271SOL     OW 6818   0.594   4.469   4.376
 1271SOL    HW1 6819   0.644   4.554   4.357
 1271SOL    HW2 6820   0.506   4.471   4.328
 1272SOL     OW 6821   1.730   4.658   5.241
 1272SOL    HW1 6822   1.768   4.749   5.256
 1272SOL    HW2 6823   1.722   4.641   5.142
 1273SOL     OW 6824   0.859   4.680   4.585
 1273SOL    HW1 6825   0.913   4.611   4.633
 1273SOL    HW2 6826   0.827   4.749   4.651
 1274SOL     OW 6827   1.083   4.708   3.811
 1274SOL    HW1 6828   1.060   4.761   3.729
 1274SOL    HW2 6829   1.164   4.652   3.792
 1275SOL     OW 6830   0.079   4.964   4.377
 1275SOL    HW1 6831   0.078   4.917   4.465
 1275SOL    HW2 6832   0.161   4.936   4.326
 1276SOL     OW 6833   1.824   3.916   4.951
 1276SOL    HW1 6834   1.820   3.826   4.995
 1276SOL    HW2 6835   1.827   3.905   4.852
 1277SOL     OW 6836   0.428   4.148   4.244
 1277SOL    HW1 6837   0.458   4.076   4.182
 1277SOL    HW2 6838   0.389   4.108   4.327
 1278SOL     OW 6839   1.424   3.938   4.836
 1278SOL    HW1 6840   1.476   3.873   4.891
 1278SOL    HW2 6841   1.375   4.001   4.897
 1279SOL     OW 6842   1.001   3.758   4.878
 1279SOL    HW1 6843   0.938   3.686   4.847
 1279SOL    HW2 6844   1.094   3.722   4.878
 1280SOL     OW 6845   0.770   5.054   4.025
 1280SOL    HW1 6846   0.724   4.967   4.042
 1280SOL    HW2 6847   0.861   5.051   4.066
 1281SOL     OW 6848   1.352   3.776   3.892
 1281SOL    HW1 6849   1.387   3.735   3.808
 1281SOL    HW2 6850   1.262   3.738   3.912
 1282SOL     OW 6851   1.300   4.177   4.415
 1282SOL    HW1 6852   1.241   4.257   4.419
 1282SOL    HW2 6853   1.315   4.142   4.508
 1283SOL     OW 6854   1.593   3.945   4.606
 1283SOL    HW1 6855   1.509   3.944   4.660
 1283SOL    HW2 6856   1.595   4.028   4.550
 1284SOL     OW 6857   0.039   4.801   4.024
 1284SOL    HW1 6858   0.138   4.790   4.015
 1284SOL    HW2 6859  -0.001   4.715   4.056
 1285SOL     OW 6860   2.092   0.628   0.113
 1285SOL    HW1 6861   1.999   0.626   0.150
 1285SOL    HW2 6862   2.093   0.589   0.021
 1286SOL     OW 6863   2.087   0.275   0.996
 1286SOL    HW1 6864   2.122   0.258   1.088
 1286SOL    HW2 6865   1.999   0.230   0.984
 1287SOL     OW 6866   1.881   0.368   0.647
 1287SOL    HW1 6867   1.799   0.411   0.686
 1287SOL    HW2 6868   1.853   0.295   0.584
 1288SOL     OW 6869   3.417   1.511   0.703
 1288SOL    HW1 6870   3.360   1.495   0.784
 1288SOL    HW2 6871   3.358   1.521   0.623
 1289SOL     OW 6872   2.997   0.703   0.717
 1289SOL    HW1 6873   3.054   0.781   0.692
 1289SOL    HW2 6874   2.937   0.729   0.793
 1290SOL     OW 6875   3.617   0.607   0.231
 1290SOL    HW1 6876   3.605   0.594   0.132
 1290SOL    HW2 6877   3.587   0.526   0.280
 1291SOL     OW 6878   2.630   1.144   1.023
 1291SOL    HW1 6879   2.552   1.161   1.083
 1291SOL    HW2 6880   2.664   1.231   0.987
 1292SOL     OW 6881   2.712   0.798   1.823
 1292SOL    HW1 6882   2.708   0.874   1.888
 1292SOL    HW2 6883   2.734   0.834   1.732
 1293SOL     OW 6884   2.547   1.012   0.665
 1293SOL    HW1 6885   2.616   0.996   0.735
 1293SOL    HW2 6886   2.474   1.069   0.703
 1294SOL     OW 6887   2.197   1.435   1.061
 1294SOL    HW1 6888   2.119   1.404   1.008
 1294SOL    HW2 6889   2.255   1.493   1.004
 1295SOL     OW 6890   2.300   0.392   1.499
 1295SOL    HW1 6891   2.382   0.336   1.508
 1295SOL    HW2 6892   2.219   0.334   1.503
 1296SOL     OW 6893   3.465   0.447   0.737
 1296SOL    HW1 6894   3.391   0.493   0.687
 1296SOL    HW2 6895   3.516   0.515   0.790
 1297SOL     OW 6896   2.093   1.713   0.483
 1297SOL    HW1 6897   2.127   1.790   0.537
 1297SOL    HW2 6898   2.137   1.713   0.393
 1298SOL     OW 6899   2.092   1.434   0.538
 1298SOL    HW1 6900   2.066   1.530   0.538
 1298SOL    HW2 6901   2.021   1.380   0.583
 1299SOL     OW 6902   2.102   1.091   0.886
 1299SOL    HW1 6903   2.116   1.007   0.938
 1299SOL    HW2 6904   2.047   1.155   0.941
 1300SOL     OW 6905   2.468   0.964   0.123
 1300SOL    HW1 6906   2.475   1.048   0.069
 1300SOL    HW2 6907   2.514   0.977   0.211
 1301SOL     OW 6908   3.456   0.114   1.480
 1301SOL    HW1 6909   3.438   0.181   1.408
 1301SOL    HW2 6910   3.453   0.160   1.569
 1302SOL     OW 6911   1.984   0.643   0.563
 1302SOL    HW1 6912   1.939   0.555   0.580
 1302SOL    HW2 6913   1.983   0.697   0.647
 1303SOL     OW 6914   3.704   1.767   0.359
 1303SOL    HW1 6915   3.758   1.738   0.439
 1303SOL    HW2 6916   3.734   1.857   0.330
 1304SOL     OW 6917   1.889   1.596   0.117
 1304SOL    HW1 6918   1.870   1.500   0.138
 1304SOL    HW2 6919   1.856   1.654   0.192
 1305SOL     OW 6920   3.551   0.922   0.612
 1305SOL    HW1 6921   3.646   0.893   0.620
 1305SOL    HW2 6922   3.543   0.987   0.537
 1306SOL     OW 6923   3.503   1.108   0.432
 1306SOL    HW1 6924   3.589   1.110   0.380
 1306SOL    HW2 6925   3.517   1.155   0.520
 1307SOL     OW 6926   1.975   0.737   1.597
 1307SOL    HW1 6927   2.063   0.724   1.642
 1307SOL    HW2 6928   1.962   0.834   1.575
 1308SOL     OW 6929   2.475   1.365   0.726
 1308SOL    HW1 6930   2.426   1.278   0.735
 1308SOL    HW2 6931   2.452   1.408   0.639
 1309SOL     OW 6932   2.671   0.004   0.502
 1309SOL    HW1 6933   2.711   0.095   0.493
 1309SOL    HW2 6934   2.571   0.012   0.508
 1310SOL     OW 6935   2.059   0.976   1.264
 1310SOL    HW1 6936   2.148   0.931   1.250
 1310SOL    HW2 6937   1.986   0.911   1.245
 1311SOL     OW 6938   3.387   0.999   0.190
 1311SOL    HW1 6939   3.324   0.923   0.203
 1311SOL    HW2 6940   3.435   1.017   0.276
 1312SOL     OW 6941   2.179   0.251   1.801
 1312SOL    HW1 6942   2.250   0.322   1.807
 1312SOL    HW2 6943   2.091   0.290   1.829
 1313SOL     OW 6944   3.328   1.417   0.953
 1313SOL    HW1 6945   3.269   1.423   1.033
 1313SOL    HW2 6946   3.313   1.329   0.907
 1314SOL     OW 6947   3.529   1.714   0.572
 1314SOL    HW1 6948   3.488   1.691   0.484
 1314SOL    HW2 6949   3.511   1.640   0.637
 1315SOL     OW 6950   2.460   0.729   0.270
 1315SOL    HW1 6951   2.484   0.798   0.202
 1315SOL    HW2 6952   2.382   0.762   0.324
 1316SOL     OW 6953   3.143   0.345   0.944
 1316SOL    HW1 6954   3.057   0.295   0.931
 1316SOL    HW2 6955   3.205   0.291   1.000
 1317SOL     OW 6956   3.438   1.662   0.307
 1317SOL    HW1 6957   3.527   1.708   0.310
 1317SOL    HW2 6958   3.417   1.638   0.212
 1318SOL     OW 6959   2.669   0.605   1.465
 1318SOL    HW1 6960   2.622   0.602   1.554
 1318SOL    HW2 6961   2.618   0.550   1.399
 1319SOL     OW 6962   3.256   0.469   1.674
 1319SOL    HW1 6963   3.236   0.512   1.762
 1319SOL    HW2 6964   3.334   0.407   1.683
 1320SOL     OW 6965   2.835   0.890   1.572
 1320SOL    HW1 6966   2.881   0.806   1.543
 1320SOL    HW2 6967   2.779   0.924   1.497
 1321SOL     OW 6968   2.853   0.410   1.242
 1321SOL    HW1 6969   2.776   0.444   1.296
 1321SOL    HW2 6970   2.819   0.359   1.163
 1322SOL     OW 6971   2.903   0.701   0.429
 1322SOL    HW1 6972   2.929   0.697   0.525
 1322SOL    HW2 6973   2.818   0.650   0.415
 1323SOL     OW 6974   1.938   0.811   0.789
 1323SOL    HW1 6975   2.037   0.799   0.798
 1323SOL    HW2 6976   1.914   0.906   0.810
 1324SOL     OW 6977   2.727   0.348   0.195
 1324SOL    HW1 6978   2.786   0.411   0.146
 1324SOL    HW2 6979   2.746   0.254   0.166
 1325SOL     OW 6980   3.581   0.585   1.831
 1325SOL    HW1 6981   3.555   0.674   1.795
 1325SOL    HW2 6982   3.579   0.517   1.758
 1326SOL     OW 6983   3.224   1.144   0.545
 1326SOL    HW1 6984   3.307   1.115   0.497
 1326SOL    HW2 6985   3.175   1.211   0.489
 1327SOL     OW 6986   2.412   0.196   0.885
 1327SOL    HW1 6987   2.407   0.191   0.985
 1327SOL    HW2 6988   2.414   0.292   0.856
 1328SOL     OW 6989   2.870   1.456   0.477
 1328SOL    HW1 6990   2.824   1.528   0.425
 1328SOL    HW2 6991   2.866   1.476   0.575
 1329SOL     OW 6992   3.657   1.066   0.873
 1329SOL    HW1 6993   3.595   1.051   0.797
 1329SOL    HW2 6994   3.605   1.077   0.958
 1330SOL     OW 6995   2.183   0.943   0.242
 1330SOL    HW1 6996   2.265   0.982   0.200
 1330SOL    HW2 6997   2.156   0.861   0.193
 1331SOL     OW 6998   3.320   0.735   0.728
 1331SOL    HW1 6999   3.315   0.670   0.803
 1331SOL    HW2 7000   3.400   0.794   0.741
 1332SOL     OW 7001   2.973   1.776   0.237
 1332SOL    HW1 7002   2.913   1.714   0.287
 1332SOL    HW2 7003   3.004   1.732   0.152
 1333SOL     OW 7004   2.064   0.285   1.498
 1333SOL    HW1 7005   1.984   0.345   1.485
 1333SOL    HW2 7006   2.054   0.236   1.584
 1334SOL     OW 7007   3.494   1.377   0.081
 1334SOL    HW1 7008   3.462   1.471   0.071
 1334SOL    HW2 7009   3.418   1.314   0.069
 1335SOL     OW 7010   2.326   1.743   0.323
 1335SOL    HW1 7011   2.359   1.782   0.409
 1335SOL    HW2 7012   2.402   1.736   0.258
 1336SOL     OW 7013   3.262   0.107   0.426
 1336SOL    HW1 7014   3.238   0.070   0.336
 1336SOL    HW2 7015   3.361   0.123   0.430
 1337SOL     OW 7016   2.802   1.698   0.904
 1337SOL    HW1 7017   2.882   1.641   0.925
 1337SOL    HW2 7018   2.753   1.658   0.827
 1338SOL     OW 7019   2.244   0.700   0.480
 1338SOL    HW1 7020   2.289   0.610   0.477
 1338SOL    HW2 7021   2.150   0.689   0.513
 1339SOL     OW 7022   3.409   0.222   1.729
 1339SOL    HW1 7023   3.404   0.259   1.821
 1339SOL    HW2 7024   3.337   0.153   1.717
 1340SOL     OW 7025   2.476   0.122   0.117
 1340SOL    HW1 7026   2.574   0.100   0.124
 1340SOL    HW2 7027   2.445   0.105   0.024
 1341SOL     OW 7028   2.643   0.264   1.749
 1341SOL    HW1 7029   2.710   0.203   1.792
 1341SOL    HW2 7030   2.570   0.283   1.814
 1342SOL     OW 7031   3.213   0.590   1.433
 1342SOL    HW1 7032   3.241   0.547   1.518
 1342SOL    HW2 7033   3.238   0.686   1.434
 1343SOL     OW 7034   2.665   1.402   0.924
 1343SOL    HW1 7035   2.755   1.416   0.882
 1343SOL    HW2 7036   2.594   1.404   0.853
 1344SOL     OW 7037   2.784   0.503   0.899
 1344SOL    HW1 7038   2.759   0.494   0.803
 1344SOL    HW2 7039   2.832   0.421   0.930
 1345SOL     OW 7040   2.401   0.064   0.512
 1345SOL    HW1 7041   2.320   0.065   0.570
 1345SOL    HW2 7042   2.404   0.147   0.457
 1346SOL     OW 7043   3.296   1.188   0.041
 1346SOL    HW1 7044   3.328   1.112   0.098
 1346SOL    HW2 7045   3.204   1.215   0.071
 1347SOL     OW 7046   2.159   0.035   0.171
 1347SOL    HW1 7047   2.208   0.119   0.150
 1347SOL    HW2 7048   2.221  -0.030   0.216
 1348SOL     OW 7049   2.797   0.236   0.480
 1348SOL    HW1 7050   2.749   0.277   0.402
 1348SOL    HW2 7051   2.896   0.234   0.461
 1349SOL     OW 7052   2.938   0.683   1.464
 1349SOL    HW1 7053   2.858   0.622   1.467
 1349SOL    HW2 7054   3.019   0.630   1.440
 1350SOL     OW 7055   3.089   1.570   0.793
 1350SOL    HW1 7056   3.110   1.644   0.728
 1350SOL    HW2 7057   3.157   1.570   0.866
 1351SOL     OW 7058   2.321   1.152   0.741
 1351SOL    HW1 7059   2.250   1.125   0.806
 1351SOL    HW2 7060   2.295   1.124   0.648
 1352SOL     OW 7061   3.133   1.797   0.591
 1352SOL    HW1 7062   3.177   1.861   0.527
 1352SOL    HW2 7063   3.083   1.849   0.661
 1353SOL     OW 7064   2.894   0.549   0.016
 1353SOL    HW1 7065   2.853   0.631  -0.023
 1353SOL    HW2 7066   2.958   0.575   0.089
 1354SOL     OW 7067   1.940   0.556   1.386
 1354SOL    HW1 7068   2.032   0.555   1.345
 1354SOL    HW2 7069   1.934   0.630   1.453
 1355SOL     OW 7070   2.423   0.222   1.147
 1355SOL    HW1 7071   2.461   0.138   1.184
 1355SOL    HW2 7072   2.335   0.241   1.191
 1356SOL     OW 7073   2.728   0.454   0.642
 1356SOL    HW1 7074   2.696   0.526   0.580
 1356SOL    HW2 7075   2.752   0.373   0.589
 1357SOL     OW 7076   2.879   0.039   0.753
 1357SOL    HW1 7077   2.807   0.044   0.684
 1357SOL    HW2 7078   2.855  -0.030   0.822
 1358SOL     OW 7079   3.291   1.173   0.867
 1358SOL    HW1 7080   3.236   1.089   0.860
 1358SOL    HW2 7081   3.317   1.202   0.775
 1359SOL     OW 7082   3.328   0.590   0.992
 1359SOL    HW1 7083   3.298   0.495   0.999
 1359SOL    HW2 7084   3.401   0.606   1.058
 1360SOL     OW 7085   3.719   0.833   0.377
 1360SOL    HW1 7086   3.761   0.769   0.441
 1360SOL    HW2 7087   3.681   0.782   0.299
 1361SOL     OW 7088   2.350   1.385   0.174
 1361SOL    HW1 7089   2.263   1.370   0.221
 1361SOL    HW2 7090   2.333   1.411   0.079
 1362SOL     OW 7091   3.526   1.280   0.657
 1362SOL    HW1 7092   3.625   1.288   0.671
 1362SOL    HW2 7093   3.481   1.364   0.688
 1363SOL     OW 7094   3.252   0.575   0.078
 1363SOL    HW1 7095   3.198   0.554   0.159
 1363SOL    HW2 7096   3.343   0.534   0.087
 1364SOL     OW 7097   2.389   0.256   0.328
 1364SOL    HW1 7098   2.416   0.197   0.253
 1364SOL    HW2 7099   2.389   0.351   0.297
 1365SOL     OW 7100   3.616   1.223   1.588
 1365SOL    HW1 7101   3.707   1.184   1.575
 1365SOL    HW2 7102   3.624   1.319   1.612
 1366SOL     OW 7103   2.973   1.195   1.100
 1366SOL    HW1 7104   2.933   1.239   1.181
 1366SOL    HW2 7105   2.932   1.232   1.017
 1367SOL     OW 7106   3.500   1.099   1.079
 1367SOL    HW1 7107   3.505   1.180   1.138
 1367SOL    HW2 7108   3.414   1.101   1.028
 1368SOL     OW 7109   2.777   0.089   1.402
 1368SOL    HW1 7110   2.802   0.069   1.307
 1368SOL    HW2 7111   2.849   0.145   1.444
 1369SOL     OW 7112   2.567   1.050   0.368
 1369SOL    HW1 7113   2.553   1.057   0.467
 1369SOL    HW2 7114   2.651   0.999   0.350
 1370SOL     OW 7115   2.272   0.813   1.251
 1370SOL    HW1 7116   2.358   0.825   1.301
 1370SOL    HW2 7117   2.230   0.726   1.278
 1371SOL     OW 7118   3.136   0.386   1.262
 1371SOL    HW1 7119   3.157   0.460   1.326
 1371SOL    HW2 7120   3.047   0.403   1.219
 1372SOL     OW 7121   2.229   1.100   0.501
 1372SOL    HW1 7122   2.222   1.183   0.445
 1372SOL    HW2 7123   2.233   1.020   0.441
 1373SOL     OW 7124   2.428   0.537   0.865
 1373SOL    HW1 7125   2.440   0.603   0.791
 1373SOL    HW2 7126   2.474   0.571   0.948
 1374SOL     OW 7127   3.114   1.348   0.388
 1374SOL    HW1 7128   3.164   1.425   0.428
 1374SOL    HW2 7129   3.019   1.350   0.420
 1375SOL     OW 7130   3.444   0.639   0.472
 1375SOL    HW1 7131   3.413   0.700   0.545
 1375SOL    HW2 7132   3.494   0.691   0.403
 1376SOL     OW 7133   2.264   0.751   1.598
 1376SOL    HW1 7134   2.332   0.806   1.551
 1376SOL    HW2 7135   2.304   0.663   1.625
 1377SOL     OW 7136   3.449   0.779   1.670
 1377SOL    HW1 7137   3.357   0.817   1.665
 1377SOL    HW2 7138   3.509   0.826   1.605
 1378SOL     OW 7139   2.875   0.105   1.770
 1378SOL    HW1 7140   2.881   0.190   1.718
 1378SOL    HW2 7141   2.907   0.029   1.713
 1379SOL     OW 7142   2.366   0.050   1.740
 1379SOL    HW1 7143   2.324  -0.007   1.670
 1379SOL    HW2 7144   2.300   0.119   1.772
 1380SOL     OW 7145   2.435   0.870   1.029
 1380SOL    HW1 7146   2.479   0.959   1.020
 1380SOL    HW2 7147   2.372   0.870   1.106
 1381SOL     OW 7148   3.222   0.862   1.045
 1381SOL    HW1 7149   3.147   0.862   0.979
 1381SOL    HW2 7150   3.259   0.770   1.054
 1382SOL     OW 7151   3.071   0.525   0.275
 1382SOL    HW1 7152   3.084   0.441   0.329
 1382SOL    HW2 7153   3.042   0.599   0.335
 1383SOL     OW 7154   2.169   0.213   1.231
 1383SOL    HW1 7155   2.146   0.250   1.321
 1383SOL    HW2 7156   2.139   0.118   1.225
 1384SOL     OW 7157   2.594   0.634   1.064
 1384SOL    HW1 7158   2.653   0.608   0.988
 1384SOL    HW2 7159   2.566   0.730   1.053
 1385SOL     OW 7160   3.590   0.935   1.854
 1385SOL    HW1 7161   3.544   0.928   1.765
 1385SOL    HW2 7162   3.528   0.979   1.920
 1386SOL     OW 7163   2.169   0.063   0.618
 1386SOL    HW1 7164   2.158   0.157   0.651
 1386SOL    HW2 7165   2.164   0.000   0.695
 1387SOL     OW 7166   3.484   0.367   0.374
 1387SOL    HW1 7167   3.486   0.291   0.438
 1387SOL    HW2 7168   3.436   0.444   0.414
 1388SOL     OW 7169   2.885   0.766   0.966
 1388SOL    HW1 7170   2.900   0.787   1.062
 1388SOL    HW2 7171   2.855   0.671   0.957
 1389SOL     OW 7172   3.402   0.274   0.125
 1389SOL    HW1 7173   3.341   0.199   0.148
 1389SOL    HW2 7174   3.424   0.326   0.208
 1390SOL     OW 7175   3.165   0.838   0.042
 1390SOL    HW1 7176   3.199   0.745   0.057
 1390SOL    HW2 7177   3.183   0.865  -0.053
 1391SOL     OW 7178   2.930   1.333   0.849
 1391SOL    HW1 7179   2.937   1.249   0.794
 1391SOL    HW2 7180   2.992   1.402   0.813
 1392SOL     OW 7181   2.181   0.810   0.949
 1392SOL    HW1 7182   2.274   0.846   0.954
 1392SOL    HW2 7183   2.175   0.725   1.001
 1393SOL     OW 7184   2.201   0.509   1.006
 1393SOL    HW1 7185   2.149   0.426   0.989
 1393SOL    HW2 7186   2.278   0.514   0.942
 1394SOL     OW 7187   3.000   0.380   1.678
 1394SOL    HW1 7188   2.955   0.443   1.742
 1394SOL    HW2 7189   3.093   0.411   1.661
 1395SOL     OW 7190   3.022   0.207   1.477
 1395SOL    HW1 7191   3.022   0.271   1.554
 1395SOL    HW2 7192   3.050   0.255   1.394
 1396SOL     OW 7193   1.870   1.326   0.200
 1396SOL    HW1 7194   1.777   1.347   0.169
 1396SOL    HW2 7195   1.880   1.227   0.213
 1397SOL     OW 7196   2.366   1.568   0.910
 1397SOL    HW1 7197   2.432   1.642   0.919
 1397SOL    HW2 7198   2.410   1.489   0.868
 1398SOL     OW 7199   2.864   0.796   1.238
 1398SOL    HW1 7200   2.905   0.764   1.324
 1398SOL    HW2 7201   2.768   0.769   1.235
 1399SOL     OW 7202   1.902   0.544   1.114
 1399SOL    HW1 7203   1.987   0.511   1.073
 1399SOL    HW2 7204   1.915   0.559   1.212
 1400SOL     OW 7205   2.051   0.520   1.722
 1400SOL    HW1 7206   2.110   0.480   1.652
 1400SOL    HW2 7207   1.993   0.591   1.681
 1401SOL     OW 7208   3.231   0.950   1.660
 1401SOL    HW1 7209   3.270   1.039   1.680
 1401SOL    HW2 7210   3.241   0.930   1.563
 1402SOL     OW 7211   2.677   0.572   0.325
 1402SOL    HW1 7212   2.684   0.483   0.279
 1402SOL    HW2 7213   2.583   0.606   0.317
 1403SOL     OW 7214   3.519   0.604   1.206
 1403SOL    HW1 7215   3.481   0.535   1.268
 1403SOL    HW2 7216   3.601   0.568   1.162
 1404SOL     OW 7217   2.533   0.464   1.269
 1404SOL    HW1 7218   2.499   0.375   1.239
 1404SOL    HW2 7219   2.559   0.518   1.189
 1405SOL     OW 7220   2.335   0.500   0.191
 1405SOL    HW1 7221   2.396   0.580   0.195
 1405SOL    HW2 7222   2.240   0.531   0.198
 1406SOL     OW 7223   2.021   1.137   1.466
 1406SOL    HW1 7224   2.043   1.076   1.542
 1406SOL    HW2 7225   2.031   1.088   1.380
 1407SOL     OW 7226   3.209   1.059   1.234
 1407SOL    HW1 7227   3.233   0.996   1.160
 1407SOL    HW2 7228   3.119   1.099   1.216
 1408SOL     OW 7229   3.164   0.855   0.309
 1408SOL    HW1 7230   3.078   0.824   0.351
 1408SOL    HW2 7231   3.160   0.841   0.210
 1409SOL     OW 7232   3.621   1.747   1.154
 1409SOL    HW1 7233   3.682   1.777   1.081
 1409SOL    HW2 7234   3.583   1.658   1.132
 1410SOL     OW 7235   1.945   1.258   1.022
 1410SOL    HW1 7236   1.940   1.257   1.122
 1410SOL    HW2 7237   1.862   1.217   0.984
 1411SOL     OW 7238   2.765   0.086   0.133
 1411SOL    HW1 7239   2.816   0.087   0.047
 1411SOL    HW2 7240   2.821   0.044   0.204
 1412SOL     OW 7241   3.588   0.135   0.523
 1412SOL    HW1 7242   3.661   0.118   0.456
 1412SOL    HW2 7243   3.557   0.048   0.561
 1413SOL     OW 7244   3.250   1.573   0.477
 1413SOL    HW1 7245   3.317   1.585   0.403
 1413SOL    HW2 7246   3.210   1.662   0.500
 1414SOL     OW 7247   3.142   0.927   0.672
 1414SOL    HW1 7248   3.202   0.846   0.674
 1414SOL    HW2 7249   3.182   0.996   0.612
 1415SOL     OW 7250   2.534   1.616   0.154
 1415SOL    HW1 7251   2.543   1.626   0.055
 1415SOL    HW2 7252   2.494   1.527   0.175
 1416SOL     OW 7253   3.703   0.175   0.963
 1416SOL    HW1 7254   3.742   0.090   0.927
 1416SOL    HW2 7255   3.605   0.177   0.944
 1417SOL     OW 7256   2.125   0.326   0.720
 1417SOL    HW1 7257   2.046   0.377   0.686
 1417SOL    HW2 7258   2.116   0.311   0.818
 1418SOL     OW 7259   3.056   1.612   0.031
 1418SOL    HW1 7260   3.062   1.519   0.068
 1418SOL    HW2 7261   2.997   1.612  -0.049
 1419SOL     OW 7262   2.684   1.002   1.372
 1419SOL    HW1 7263   2.724   1.001   1.280
 1419SOL    HW2 7264   2.694   1.094   1.412
 1420SOL     OW 7265   2.778   0.910   0.291
 1420SOL    HW1 7266   2.841   0.948   0.223
 1420SOL    HW2 7267   2.818   0.827   0.330
 1421SOL     OW 7268   3.366   1.607   0.044
 1421SOL    HW1 7269   3.274   1.644   0.051
 1421SOL    HW2 7270   3.404   1.627  -0.046
 1422SOL     OW 7271   2.901   1.098   0.696
 1422SOL    HW1 7272   2.831   1.051   0.750
 1422SOL    HW2 7273   2.960   1.030   0.653
 1423SOL     OW 7274   2.876   0.236   0.971
 1423SOL    HW1 7275   2.868   0.200   0.878
 1423SOL    HW2 7276   2.874   0.160   1.036
 1424SOL     OW 7277   2.452   1.487   0.491
 1424SOL    HW1 7278   2.494   1.429   0.421
 1424SOL    HW2 7279   2.408   1.566   0.447
 1425SOL     OW 7280   3.571   0.385   1.381
 1425SOL    HW1 7281   3.644   0.454   1.385
 1425SOL    HW2 7282   3.599   0.310   1.322
 1426SOL     OW 7283   2.117   1.348   0.290
 1426SOL    HW1 7284   2.021   1.349   0.263
 1426SOL    HW2 7285   2.129   1.401   0.374
 1427SOL     OW 7286   2.534   0.203   1.489
 1427SOL    HW1 7287   2.624   0.187   1.449
 1427SOL    HW2 7288   2.542   0.208   1.588
 1428SOL     OW 7289   3.302   0.856   1.398
 1428SOL    HW1 7290   3.245   0.908   1.335
 1428SOL    HW2 7291   3.398   0.868   1.374
 1429SOL     OW 7292   1.934   0.166   0.318
 1429SOL    HW1 7293   1.917   0.249   0.264
 1429SOL    HW2 7294   2.024   0.129   0.296
 1430SOL     OW 7295   3.045   1.335   0.119
 1430SOL    HW1 7296   2.946   1.324   0.121
 1430SOL    HW2 7297   3.079   1.350   0.212
 1431SOL     OW 7298   2.475   0.842   1.431
 1431SOL    HW1 7299   2.531   0.923   1.414
 1431SOL    HW2 7300   2.534   0.762   1.434
 1432SOL     OW 7301   2.578   0.565   1.708
 1432SOL    HW1 7302   2.597   0.630   1.782
 1432SOL    HW2 7303   2.638   0.485   1.717
 1433SOL     OW 7304   3.536   0.883   1.254
 1433SOL    HW1 7305   3.509   0.794   1.217
 1433SOL    HW2 7306   3.537   0.951   1.181
 1434SOL     OW 7307   3.087   0.325   0.449
 1434SOL    HW1 7308   3.152   0.251   0.438
 1434SOL    HW2 7309   3.107   0.375   0.533
 1435SOL     OW 7310   2.456   0.745   0.652
 1435SOL    HW1 7311   2.506   0.830   0.633
 1435SOL    HW2 7312   2.368   0.747   0.604
 1436SOL     OW 7313   3.639   0.342   1.642
 1436SOL    HW1 7314   3.622   0.373   1.548
 1436SOL    HW2 7315   3.555   0.305   1.680
 1437SOL     OW 7316   3.592   0.934   1.517
 1437SOL    HW1 7317   3.630   1.025   1.532
 1437SOL    HW2 7318   3.584   0.917   1.418
 1438SOL     OW 7319   2.721   1.374   0.016
 1438SOL    HW1 7320   2.675   1.389   0.104
 1438SOL    HW2 7321   2.765   1.459  -0.014
 1439SOL     OW 7322   2.721   0.956   0.861
 1439SOL    HW1 7323   2.775   0.887   0.909
 1439SOL    HW2 7324   2.689   1.025   0.927
 1440SOL     OW 7325   2.945   0.984   0.087
 1440SOL    HW1 7326   2.922   1.037   0.005
 1440SOL    HW2 7327   3.026   0.928   0.068
 1441SOL     OW 7328   3.723   1.569   0.851
 1441SOL    HW1 7329   3.652   1.557   0.781
 1441SOL    HW2 7330   3.724   1.490   0.911
 1442SOL     OW 7331   1.941   1.240   0.653
 1442SOL    HW1 7332   1.940   1.193   0.741
 1442SOL    HW2 7333   2.023   1.212   0.602
 1443SOL     OW 7334   3.686   0.192   1.227
 1443SOL    HW1 7335   3.682   0.102   1.271
 1443SOL    HW2 7336   3.689   0.181   1.128
 1444SOL     OW 7337   2.290   0.424   0.520
 1444SOL    HW1 7338   2.320   0.352   0.458
 1444SOL    HW2 7339   2.251   0.384   0.603
 1445SOL     OW 7340   3.567   1.487   1.104
 1445SOL    HW1 7341   3.474   1.462   1.077
 1445SOL    HW2 7342   3.593   1.437   1.186
 1446SOL     OW 7343   2.179   0.547   1.280
 1446SOL    HW1 7344   2.217   0.488   1.352
 1446SOL    HW2 7345   2.219   0.521   1.192
 1447SOL     OW 7346   2.674   1.586   0.687
 1447SOL    HW1 7347   2.706   1.596   0.593
 1447SOL    HW2 7348   2.595   1.524   0.689
 1448SOL     OW 7349   3.286   0.214   1.112
 1448SOL    HW1 7350   3.338   0.149   1.167
 1448SOL    HW2 7351   3.237   0.277   1.173
 1449SOL     OW 7352   2.863   0.034   1.154
 1449SOL    HW1 7353   2.800  -0.038   1.123
 1449SOL    HW2 7354   2.956  -0.002   1.154
 1450SOL     OW 7355   2.632   1.330   0.301
 1450SOL    HW1 7356   2.586   1.243   0.318
 1450SOL    HW2 7357   2.723   1.327   0.342
 1451SOL     OW 7358   3.214   0.052   0.168
 1451SOL    HW1 7359   3.249   0.011   0.084
 1451SOL    HW2 7360   3.124   0.014   0.188
 1452SOL     OW 7361   3.162   0.453   0.691
 1452SOL    HW1 7362   3.103   0.533   0.695
 1452SOL    HW2 7363   3.177   0.418   0.784
 1453SOL     OW 7364   3.455   0.221   0.882
 1453SOL    HW1 7365   3.371   0.220   0.936
 1453SOL    HW2 7366   3.457   0.304   0.826
 1454SOL     OW 7367   2.737   1.646   0.337
 1454SOL    HW1 7368   2.660   1.611   0.283
 1454SOL    HW2 7369   2.705   1.717   0.399
 1455SOL     OW 7370   2.092   0.628   1.975
 1455SOL    HW1 7371   1.999   0.626   2.012
 1455SOL    HW2 7372   2.093   0.589   1.883
 1456SOL     OW 7373   2.087   0.275   2.858
 1456SOL    HW1 7374   2.122   0.258   2.950
 1456SOL    HW2 7375   1.999   0.230   2.846
 1457SOL     OW 7376   1.881   0.368   2.509
 1457SOL    HW1 7377   1.799   0.411   2.548
 1457SOL    HW2 7378   1.853   0.295   2.446
 1458SOL     OW 7379   2.997   0.703   2.579
 1458SOL    HW1 7380   3.054   0.781   2.554
 1458SOL    HW2 7381   2.937   0.729   2.655
 1459SOL     OW 7382   3.617   0.607   2.093
 1459SOL    HW1 7383   3.605   0.594   1.994
 1459SOL    HW2 7384   3.587   0.526   2.142
 1460SOL     OW 7385   2.712   0.798   3.685
 1460SOL    HW1 7386   2.708   0.874   3.750
 1460SOL    HW2 7387   2.734   0.834   3.594
 1461SOL     OW 7388   2.547   1.012   2.527
 1461SOL    HW1 7389   2.616   0.996   2.597
 1461SOL    HW2 7390   2.474   1.069   2.565
 1462SOL     OW 7391   2.300   0.392   3.361
 1462SOL    HW1 7392   2.382   0.336   3.370
 1462SOL    HW2 7393   2.219   0.334   3.365
 1463SOL     OW 7394   3.465   0.447   2.599
 1463SOL    HW1 7395   3.391   0.493   2.549
 1463SOL    HW2 7396   3.516   0.515   2.652
 1464SOL     OW 7397   2.468   0.964   1.985
 1464SOL    HW1 7398   2.475   1.048   1.931
 1464SOL    HW2 7399   2.514   0.977   2.073
 1465SOL     OW 7400   3.456   0.114   3.342
 1465SOL    HW1 7401   3.438   0.181   3.270
 1465SOL    HW2 7402   3.453   0.160   3.431
 1466SOL     OW 7403   1.984   0.643   2.425
 1466SOL    HW1 7404   1.939   0.555   2.442
 1466SOL    HW2 7405   1.983   0.697   2.509
 1467SOL     OW 7406   3.704   1.767   2.221
 1467SOL    HW1 7407   3.758   1.738   2.301
 1467SOL    HW2 7408   3.734   1.857   2.192
 1468SOL     OW 7409   1.975   0.737   3.459
 1468SOL    HW1 7410   2.063   0.724   3.504
 1468SOL    HW2 7411   1.962   0.834   3.437
 1469SOL     OW 7412   2.671   0.004   2.364
 1469SOL    HW1 7413   2.711   0.095   2.355
 1469SOL    HW2 7414   2.571   0.012   2.370
 1470SOL     OW 7415   2.059   0.976   3.126
 1470SOL    HW1 7416   2.148   0.931   3.112
 1470SOL    HW2 7417   1.986   0.911   3.107
 1471SOL     OW 7418   3.387   0.999   2.052
 1471SOL    HW1 7419   3.324   0.923   2.065
 1471SOL    HW2 7420   3.435   1.017   2.138
 1472SOL     OW 7421   2.179   0.251   3.663
 1472SOL    HW1 7422   2.250   0.322   3.669
 1472SOL    HW2 7423   2.091   0.290   3.691
 1473SOL     OW 7424   2.460   0.729   2.132
 1473SOL    HW1 7425   2.484   0.798   2.064
 1473SOL    HW2 7426   2.382   0.762   2.186
 1474SOL     OW 7427   3.143   0.345   2.806
 1474SOL    HW1 7428   3.057   0.295   2.793
 1474SOL    HW2 7429   3.205   0.291   2.862
 1475SOL     OW 7430   2.669   0.605   3.327
 1475SOL    HW1 7431   2.622   0.602   3.416
 1475SOL    HW2 7432   2.618   0.550   3.261
 1476SOL     OW 7433   3.256   0.469   3.536
 1476SOL    HW1 7434   3.236   0.512   3.624
 1476SOL    HW2 7435   3.334   0.407   3.545
 1477SOL     OW 7436   2.853   0.410   3.104
 1477SOL    HW1 7437   2.776   0.444   3.158
 1477SOL    HW2 7438   2.819   0.359   3.025
 1478SOL     OW 7439   2.903   0.701   2.291
 1478SOL    HW1 7440   2.929   0.697   2.387
 1478SOL    HW2 7441   2.818   0.650   2.277
 1479SOL     OW 7442   1.938   0.811   2.651
 1479SOL    HW1 7443   2.037   0.799   2.660
 1479SOL    HW2 7444   1.914   0.906   2.672
 1480SOL     OW 7445   2.727   0.348   2.057
 1480SOL    HW1 7446   2.786   0.411   2.008
 1480SOL    HW2 7447   2.746   0.254   2.028
 1481SOL     OW 7448   3.581   0.585   3.693
 1481SOL    HW1 7449   3.555   0.674   3.657
 1481SOL    HW2 7450   3.579   0.517   3.620
 1482SOL     OW 7451   2.412   0.196   2.747
 1482SOL    HW1 7452   2.407   0.191   2.847
 1482SOL    HW2 7453   2.414   0.292   2.718
 1483SOL     OW 7454   3.320   0.735   2.590
 1483SOL    HW1 7455   3.315   0.670   2.665
 1483SOL    HW2 7456   3.400   0.794   2.603
 1484SOL     OW 7457   2.064   0.285   3.360
 1484SOL    HW1 7458   1.984   0.345   3.347
 1484SOL    HW2 7459   2.054   0.236   3.446
 1485SOL     OW 7460   3.262   0.107   2.288
 1485SOL    HW1 7461   3.238   0.070   2.198
 1485SOL    HW2 7462   3.361   0.123   2.292
 1486SOL     OW 7463   2.244   0.700   2.342
 1486SOL    HW1 7464   2.289   0.610   2.339
 1486SOL    HW2 7465   2.150   0.689   2.375
 1487SOL     OW 7466   3.409   0.222   3.591
 1487SOL    HW1 7467   3.404   0.259   3.683
 1487SOL    HW2 7468   3.337   0.153   3.579
 1488SOL     OW 7469   2.476   0.122   1.979
 1488SOL    HW1 7470   2.574   0.100   1.986
 1488SOL    HW2 7471   2.445   0.105   1.886
 1489SOL     OW 7472   2.643   0.264   3.611
 1489SOL    HW1 7473   2.710   0.203   3.654
 1489SOL    HW2 7474   2.570   0.283   3.676
 1490SOL     OW 7475   3.213   0.590   3.295
 1490SOL    HW1 7476   3.241   0.547   3.380
 1490SOL    HW2 7477   3.238   0.686   3.296
 1491SOL     OW 7478   2.784   0.503   2.761
 1491SOL    HW1 7479   2.759   0.494   2.665
 1491SOL    HW2 7480   2.832   0.421   2.792
 1492SOL     OW 7481   2.401   0.064   2.374
 1492SOL    HW1 7482   2.320   0.065   2.432
 1492SOL    HW2 7483   2.404   0.147   2.319
 1493SOL     OW 7484   2.159   0.035   2.033
 1493SOL    HW1 7485   2.208   0.119   2.012
 1493SOL    HW2 7486   2.221  -0.030   2.078
 1494SOL     OW 7487   2.797   0.236   2.342
 1494SOL    HW1 7488   2.749   0.277   2.264
 1494SOL    HW2 7489   2.896   0.234   2.323
 1495SOL     OW 7490   2.938   0.683   3.326
 1495SOL    HW1 7491   2.858   0.622   3.329
 1495SOL    HW2 7492   3.019   0.630   3.302
 1496SOL     OW 7493   2.894   0.549   1.878
 1496SOL    HW1 7494   2.853   0.631   1.839
 1496SOL    HW2 7495   2.958   0.575   1.951
 1497SOL     OW 7496   1.940   0.556   3.248
 1497SOL    HW1 7497   2.032   0.555   3.207
 1497SOL    HW2 7498   1.934   0.630   3.315
 1498SOL     OW 7499   2.423   0.222   3.009
 1498SOL    HW1 7500   2.461   0.138   3.046
 1498SOL    HW2 7501   2.335   0.241   3.053
 1499SOL     OW 7502   2.728   0.454   2.504
 1499SOL    HW1 7503   2.696   0.526   2.442
 1499SOL    HW2 7504   2.752   0.373   2.451
 1500SOL     OW 7505   2.879   0.039   2.615
 1500SOL    HW1 7506   2.807   0.044   2.546
 1500SOL    HW2 7507   2.855  -0.030   2.684
 1501SOL     OW 7508   3.328   0.590   2.854
 1501SOL    HW1 7509   3.298   0.495   2.861
 1501SOL    HW2 7510   3.401   0.606   2.920
 1502SOL     OW 7511   3.719   0.833   2.239
 1502SOL    HW1 7512   3.761   0.769   2.303
 1502SOL    HW2 7513   3.681   0.782   2.161
 1503SOL     OW 7514   3.252   0.575   1.940
 1503SOL    HW1 7515   3.198   0.554   2.021
 1503SOL    HW2 7516   3.343   0.534   1.949
 1504SOL     OW 7517   2.389   0.256   2.190
 1504SOL    HW1 7518   2.416   0.197   2.115
 1504SOL    HW2 7519   2.389   0.351   2.159
 1505SOL     OW 7520   3.616   1.223   3.450
 1505SOL    HW1 7521   3.707   1.184   3.437
 1505SOL    HW2 7522   3.624   1.319   3.474
 1506SOL     OW 7523   2.777   0.089   3.264
 1506SOL    HW1 7524   2.802   0.069   3.169
 1506SOL    HW2 7525   2.849   0.145   3.306
 1507SOL     OW 7526   2.567   1.050   2.230
 1507SOL    HW1 7527   2.553   1.057   2.329
 1507SOL    HW2 7528   2.651   0.999   2.212
 1508SOL     OW 7529   2.272   0.813   3.113
 1508SOL    HW1 7530   2.358   0.825   3.163
 1508SOL    HW2 7531   2.230   0.726   3.140
 1509SOL     OW 7532   3.136   0.386   3.124
 1509SOL    HW1 7533   3.157   0.460   3.188
 1509SOL    HW2 7534   3.047   0.403   3.081
 1510SOL     OW 7535   2.428   0.537   2.727
 1510SOL    HW1 7536   2.440   0.603   2.653
 1510SOL    HW2 7537   2.474   0.571   2.810
 1511SOL     OW 7538   3.444   0.639   2.334
 1511SOL    HW1 7539   3.413   0.700   2.407
 1511SOL    HW2 7540   3.494   0.691   2.265
 1512SOL     OW 7541   2.264   0.751   3.460
 1512SOL    HW1 7542   2.332   0.806   3.413
 1512SOL    HW2 7543   2.304   0.663   3.487
 1513SOL     OW 7544   3.449   0.779   3.532
 1513SOL    HW1 7545   3.357   0.817   3.527
 1513SOL    HW2 7546   3.509   0.826   3.467
 1514SOL     OW 7547   2.875   0.105   3.632
 1514SOL    HW1 7548   2.881   0.190   3.580
 1514SOL    HW2 7549   2.907   0.029   3.575
 1515SOL     OW 7550   2.366   0.050   3.602
 1515SOL    HW1 7551   2.324  -0.007   3.532
 1515SOL    HW2 7552   2.300   0.119   3.634
 1516SOL     OW 7553   2.435   0.870   2.891
 1516SOL    HW1 7554   2.479   0.959   2.882
 1516SOL    HW2 7555   2.372   0.870   2.968
 1517SOL     OW 7556   3.222   0.862   2.907
 1517SOL    HW1 7557   3.147   0.862   2.841
 1517SOL    HW2 7558   3.259   0.770   2.916
 1518SOL     OW 7559   3.071   0.525   2.137
 1518SOL    HW1 7560   3.084   0.441   2.191
 1518SOL    HW2 7561   3.042   0.599   2.197
 1519SOL     OW 7562   2.169   0.213   3.093
 1519SOL    HW1 7563   2.146   0.250   3.183
 1519SOL    HW2 7564   2.139   0.118   3.087
 1520SOL     OW 7565   2.594   0.634   2.926
 1520SOL    HW1 7566   2.653   0.608   2.850
 1520SOL    HW2 7567   2.566   0.730   2.915
 1521SOL     OW 7568   3.590   0.935   3.716
 1521SOL    HW1 7569   3.544   0.928   3.627
 1521SOL    HW2 7570   3.528   0.979   3.782
 1522SOL     OW 7571   2.169   0.063   2.480
 1522SOL    HW1 7572   2.158   0.157   2.513
 1522SOL    HW2 7573   2.164   0.000   2.557
 1523SOL     OW 7574   3.484   0.367   2.236
 1523SOL    HW1 7575   3.486   0.291   2.300
 1523SOL    HW2 7576   3.436   0.444   2.276
 1524SOL     OW 7577   2.885   0.766   2.828
 1524SOL    HW1 7578   2.900   0.787   2.924
 1524SOL    HW2 7579   2.855   0.671   2.819
 1525SOL     OW 7580   3.721   1.518   3.467
 1525SOL    HW1 7581   3.735   1.545   3.372
 1525SOL    HW2 7582   3.804   1.540   3.520
 1526SOL     OW 7583   2.212   0.898   3.666
 1526SOL    HW1 7584   2.288   0.942   3.714
 1526SOL    HW2 7585   2.247   0.851   3.584
 1527SOL     OW 7586   3.402   0.274   1.987
 1527SOL    HW1 7587   3.341   0.199   2.010
 1527SOL    HW2 7588   3.424   0.326   2.070
 1528SOL     OW 7589   3.165   0.838   1.904
 1528SOL    HW1 7590   3.199   0.745   1.919
 1528SOL    HW2 7591   3.183   0.865   1.809
 1529SOL     OW 7592   2.181   0.810   2.811
 1529SOL    HW1 7593   2.274   0.846   2.816
 1529SOL    HW2 7594   2.175   0.725   2.863
 1530SOL     OW 7595   2.201   0.509   2.868
 1530SOL    HW1 7596   2.149   0.426   2.851
 1530SOL    HW2 7597   2.278   0.514   2.804
 1531SOL     OW 7598   3.000   0.380   3.540
 1531SOL    HW1 7599   2.955   0.443   3.604
 1531SOL    HW2 7600   3.093   0.411   3.523
 1532SOL     OW 7601   3.022   0.207   3.339
 1532SOL    HW1 7602   3.022   0.271   3.416
 1532SOL    HW2 7603   3.050   0.255   3.256
 1533SOL     OW 7604   2.864   0.796   3.100
 1533SOL    HW1 7605   2.905   0.764   3.186
 1533SOL    HW2 7606   2.768   0.769   3.097
 1534SOL     OW 7607   1.902   0.544   2.976
 1534SOL    HW1 7608   1.987   0.511   2.935
 1534SOL    HW2 7609   1.915   0.559   3.074
 1535SOL     OW 7610   2.051   0.520   3.584
 1535SOL    HW1 7611   2.110   0.480   3.514
 1535SOL    HW2 7612   1.993   0.591   3.543
 1536SOL     OW 7613   3.231   0.950   3.522
 1536SOL    HW1 7614   3.270   1.039   3.542
 1536SOL    HW2 7615   3.241   0.930   3.425
 1537SOL     OW 7616   2.677   0.572   2.187
 1537SOL    HW1 7617   2.684   0.483   2.141
 1537SOL    HW2 7618   2.583   0.606   2.179
 1538SOL     OW 7619   3.519   0.604   3.068
 1538SOL    HW1 7620   3.481   0.535   3.130
 1538SOL    HW2 7621   3.601   0.568   3.024
 1539SOL     OW 7622   2.533   0.464   3.131
 1539SOL    HW1 7623   2.499   0.375   3.101
 1539SOL    HW2 7624   2.559   0.518   3.051
 1540SOL     OW 7625   2.335   0.500   2.053
 1540SOL    HW1 7626   2.396   0.580   2.057
 1540SOL    HW2 7627   2.240   0.531   2.060
 1541SOL     OW 7628   3.209   1.059   3.096
 1541SOL    HW1 7629   3.233   0.996   3.022
 1541SOL    HW2 7630   3.119   1.099   3.078
 1542SOL     OW 7631   3.164   0.855   2.171
 1542SOL    HW1 7632   3.078   0.824   2.213
 1542SOL    HW2 7633   3.160   0.841   2.072
 1543SOL     OW 7634   3.588   0.135   2.385
 1543SOL    HW1 7635   3.661   0.118   2.318
 1543SOL    HW2 7636   3.557   0.048   2.423
 1544SOL     OW 7637   3.142   0.927   2.534
 1544SOL    HW1 7638   3.202   0.846   2.536
 1544SOL    HW2 7639   3.182   0.996   2.474
 1545SOL     OW 7640   3.703   0.175   2.825
 1545SOL    HW1 7641   3.742   0.090   2.789
 1545SOL    HW2 7642   3.605   0.177   2.806
 1546SOL     OW 7643   2.125   0.326   2.582
 1546SOL    HW1 7644   2.046   0.377   2.548
 1546SOL    HW2 7645   2.116   0.311   2.680
 1547SOL     OW 7646   2.684   1.002   3.234
 1547SOL    HW1 7647   2.724   1.001   3.142
 1547SOL    HW2 7648   2.694   1.094   3.274
 1548SOL     OW 7649   2.778   0.910   2.153
 1548SOL    HW1 7650   2.841   0.948   2.085
 1548SOL    HW2 7651   2.818   0.827   2.192
 1549SOL     OW 7652   2.876   0.236   2.833
 1549SOL    HW1 7653   2.868   0.200   2.740
 1549SOL    HW2 7654   2.874   0.160   2.898
 1550SOL     OW 7655   3.571   0.385   3.243
 1550SOL    HW1 7656   3.644   0.454   3.247
 1550SOL    HW2 7657   3.599   0.310   3.184
 1551SOL     OW 7658   1.967   1.013   3.588
 1551SOL    HW1 7659   1.890   0.980   3.642
 1551SOL    HW2 7660   2.052   0.983   3.630
 1552SOL     OW 7661   2.534   0.203   3.351
 1552SOL    HW1 7662   2.624   0.187   3.311
 1552SOL    HW2 7663   2.542   0.208   3.450
 1553SOL     OW 7664   1.937   0.345   1.895
 1553SOL    HW1 7665   1.845   0.317   1.866
 1553SOL    HW2 7666   1.968   0.422   1.839
 1554SOL     OW 7667   3.302   0.856   3.260
 1554SOL    HW1 7668   3.245   0.908   3.197
 1554SOL    HW2 7669   3.398   0.868   3.236
 1555SOL     OW 7670   1.934   0.166   2.180
 1555SOL    HW1 7671   1.917   0.249   2.126
 1555SOL    HW2 7672   2.024   0.129   2.158
 1556SOL     OW 7673   2.475   0.842   3.293
 1556SOL    HW1 7674   2.531   0.923   3.276
 1556SOL    HW2 7675   2.534   0.762   3.296
 1557SOL     OW 7676   2.578   0.565   3.570
 1557SOL    HW1 7677   2.597   0.630   3.644
 1557SOL    HW2 7678   2.638   0.485   3.579
 1558SOL     OW 7679   3.312   1.220   3.495
 1558SOL    HW1 7680   3.303   1.210   3.594
 1558SOL    HW2 7681   3.408   1.213   3.469
 1559SOL     OW 7682   3.536   0.883   3.116
 1559SOL    HW1 7683   3.509   0.794   3.079
 1559SOL    HW2 7684   3.537   0.951   3.043
 1560SOL     OW 7685   3.087   0.325   2.311
 1560SOL    HW1 7686   3.152   0.251   2.300
 1560SOL    HW2 7687   3.107   0.375   2.395
 1561SOL     OW 7688   2.456   0.745   2.514
 1561SOL    HW1 7689   2.506   0.830   2.495
 1561SOL    HW2 7690   2.368   0.747   2.466
 1562SOL     OW 7691   3.639   0.342   3.504
 1562SOL    HW1 7692   3.622   0.373   3.410
 1562SOL    HW2 7693   3.555   0.305   3.542
 1563SOL     OW 7694   3.592   0.934   3.379
 1563SOL    HW1 7695   3.630   1.025   3.394
 1563SOL    HW2 7696   3.584   0.917   3.280
 1564SOL     OW 7697   2.721   0.956   2.723
 1564SOL    HW1 7698   2.775   0.887   2.771
 1564SOL    HW2 7699   2.689   1.025   2.789
 1565SOL     OW 7700   2.083   1.314   3.706
 1565SOL    HW1 7701   2.018   1.241   3.685
 1565SOL    HW2 7702   2.087   1.328   3.804
 1566SOL     OW 7703   3.686   0.192   3.089
 1566SOL    HW1 7704   3.682   0.102   3.133
 1566SOL    HW2 7705   3.689   0.181   2.990
 1567SOL     OW 7706   2.290   0.424   2.382
 1567SOL    HW1 7707   2.320   0.352   2.320
 1567SOL    HW2 7708   2.251   0.384   2.465
 1568SOL     OW 7709   2.179   0.547   3.142
 1568SOL    HW1 7710   2.217   0.488   3.214
 1568SOL    HW2 7711   2.219   0.521   3.054
 1569SOL     OW 7712   3.286   0.214   2.974
 1569SOL    HW1 7713   3.338   0.149   3.029
 1569SOL    HW2 7714   3.237   0.277   3.035
 1570SOL     OW 7715   2.863   0.034   3.016
 1570SOL    HW1 7716   2.800  -0.038   2.985
 1570SOL    HW2 7717   2.956  -0.002   3.016
 1571SOL     OW 7718   3.214   0.052   2.030
 1571SOL    HW1 7719   3.249   0.011   1.946
 1571SOL    HW2 7720   3.124   0.014   2.050
 1572SOL     OW 7721   3.162   0.453   2.553
 1572SOL    HW1 7722   3.103   0.533   2.557
 1572SOL    HW2 7723   3.177   0.418   2.646
 1573SOL     OW 7724   3.455   0.221   2.744
 1573SOL    HW1 7725   3.371   0.220   2.798
 1573SOL    HW2 7726   3.457   0.304   2.688
 1574SOL     OW 7727   1.901   1.077   2.162
 1574SOL    HW1 7728   2.000   1.066   2.153
 1574SOL    HW2 7729   1.861   0.991   2.194
 1575SOL     OW 7730   2.092   0.628   3.837
 1575SOL    HW1 7731   1.999   0.626   3.874
 1575SOL    HW2 7732   2.093   0.589   3.745
 1576SOL     OW 7733   2.087   0.275   4.720
 1576SOL    HW1 7734   2.122   0.258   4.812
 1576SOL    HW2 7735   1.999   0.230   4.708
 1577SOL     OW 7736   1.881   0.368   4.371
 1577SOL    HW1 7737   1.799   0.411   4.410
 1577SOL    HW2 7738   1.853   0.295   4.308
 1578SOL     OW 7739   2.431   1.275   4.889
 1578SOL    HW1 7740   2.338   1.268   4.852
 1578SOL    HW2 7741   2.442   1.364   4.933
 1579SOL     OW 7742   3.417   1.511   4.427
 1579SOL    HW1 7743   3.360   1.495   4.508
 1579SOL    HW2 7744   3.358   1.521   4.347
 1580SOL     OW 7745   3.617   0.607   3.955
 1580SOL    HW1 7746   3.605   0.594   3.856
 1580SOL    HW2 7747   3.587   0.526   4.004
 1581SOL     OW 7748   2.630   1.144   4.747
 1581SOL    HW1 7749   2.552   1.161   4.807
 1581SOL    HW2 7750   2.664   1.231   4.711
 1582SOL     OW 7751   2.547   1.012   4.389
 1582SOL    HW1 7752   2.616   0.996   4.459
 1582SOL    HW2 7753   2.474   1.069   4.427
 1583SOL     OW 7754   2.197   1.435   4.785
 1583SOL    HW1 7755   2.119   1.404   4.732
 1583SOL    HW2 7756   2.255   1.493   4.728
 1584SOL     OW 7757   3.465   0.447   4.461
 1584SOL    HW1 7758   3.391   0.493   4.411
 1584SOL    HW2 7759   3.516   0.515   4.514
 1585SOL     OW 7760   2.093   1.713   4.207
 1585SOL    HW1 7761   2.127   1.790   4.261
 1585SOL    HW2 7762   2.137   1.713   4.117
 1586SOL     OW 7763   2.092   1.434   4.262
 1586SOL    HW1 7764   2.066   1.530   4.262
 1586SOL    HW2 7765   2.021   1.380   4.307
 1587SOL     OW 7766   2.102   1.091   4.610
 1587SOL    HW1 7767   2.116   1.007   4.662
 1587SOL    HW2 7768   2.047   1.155   4.665
 1588SOL     OW 7769   2.468   0.964   3.847
 1588SOL    HW1 7770   2.475   1.048   3.793
 1588SOL    HW2 7771   2.514   0.977   3.935
 1589SOL     OW 7772   1.984   0.643   4.287
 1589SOL    HW1 7773   1.939   0.555   4.304
 1589SOL    HW2 7774   1.983   0.697   4.371
 1590SOL     OW 7775   3.704   1.767   4.083
 1590SOL    HW1 7776   3.758   1.738   4.163
 1590SOL    HW2 7777   3.734   1.857   4.054
 1591SOL     OW 7778   3.551   0.922   4.336
 1591SOL    HW1 7779   3.646   0.893   4.344
 1591SOL    HW2 7780   3.543   0.987   4.261
 1592SOL     OW 7781   3.503   1.108   4.156
 1592SOL    HW1 7782   3.589   1.110   4.104
 1592SOL    HW2 7783   3.517   1.155   4.244
 1593SOL     OW 7784   2.475   1.365   4.450
 1593SOL    HW1 7785   2.426   1.278   4.459
 1593SOL    HW2 7786   2.452   1.408   4.363
 1594SOL     OW 7787   2.671   0.004   4.226
 1594SOL    HW1 7788   2.711   0.095   4.217
 1594SOL    HW2 7789   2.571   0.012   4.232
 1595SOL     OW 7790   2.059   0.976   4.988
 1595SOL    HW1 7791   2.148   0.931   4.974
 1595SOL    HW2 7792   1.986   0.911   4.969
 1596SOL     OW 7793   3.387   0.999   3.914
 1596SOL    HW1 7794   3.324   0.923   3.927
 1596SOL    HW2 7795   3.435   1.017   4.000
 1597SOL     OW 7796   3.328   1.417   4.677
 1597SOL    HW1 7797   3.269   1.423   4.757
 1597SOL    HW2 7798   3.313   1.329   4.631
 1598SOL     OW 7799   3.529   1.714   4.296
 1598SOL    HW1 7800   3.488   1.691   4.208
 1598SOL    HW2 7801   3.511   1.640   4.361
 1599SOL     OW 7802   2.460   0.729   3.994
 1599SOL    HW1 7803   2.484   0.798   3.926
 1599SOL    HW2 7804   2.382   0.762   4.048
 1600SOL     OW 7805   3.143   0.345   4.668
 1600SOL    HW1 7806   3.057   0.295   4.655
 1600SOL    HW2 7807   3.205   0.291   4.724
 1601SOL     OW 7808   2.903   0.701   4.153
 1601SOL    HW1 7809   2.929   0.697   4.249
 1601SOL    HW2 7810   2.818   0.650   4.139
 1602SOL     OW 7811   1.938   0.811   4.513
 1602SOL    HW1 7812   2.037   0.799   4.522
 1602SOL    HW2 7813   1.914   0.906   4.534
 1603SOL     OW 7814   2.727   0.348   3.919
 1603SOL    HW1 7815   2.786   0.411   3.870
 1603SOL    HW2 7816   2.746   0.254   3.890
 1604SOL     OW 7817   3.224   1.144   4.269
 1604SOL    HW1 7818   3.307   1.115   4.221
 1604SOL    HW2 7819   3.175   1.211   4.213
 1605SOL     OW 7820   2.412   0.196   4.609
 1605SOL    HW1 7821   2.407   0.191   4.709
 1605SOL    HW2 7822   2.414   0.292   4.580
 1606SOL     OW 7823   2.870   1.456   4.201
 1606SOL    HW1 7824   2.824   1.528   4.149
 1606SOL    HW2 7825   2.866   1.476   4.299
 1607SOL     OW 7826   2.213   1.801   4.577
 1607SOL    HW1 7827   2.263   1.715   4.583
 1607SOL    HW2 7828   2.278   1.878   4.574
 1608SOL     OW 7829   3.657   1.066   4.597
 1608SOL    HW1 7830   3.595   1.051   4.521
 1608SOL    HW2 7831   3.605   1.077   4.682
 1609SOL     OW 7832   2.183   0.943   3.966
 1609SOL    HW1 7833   2.265   0.982   3.924
 1609SOL    HW2 7834   2.156   0.861   3.917
 1610SOL     OW 7835   2.973   1.776   3.961
 1610SOL    HW1 7836   2.913   1.714   4.011
 1610SOL    HW2 7837   3.004   1.732   3.876
 1611SOL     OW 7838   3.494   1.377   3.805
 1611SOL    HW1 7839   3.462   1.471   3.795
 1611SOL    HW2 7840   3.418   1.314   3.793
 1612SOL     OW 7841   2.326   1.743   4.047
 1612SOL    HW1 7842   2.359   1.782   4.133
 1612SOL    HW2 7843   2.402   1.736   3.982
 1613SOL     OW 7844   3.262   0.107   4.150
 1613SOL    HW1 7845   3.238   0.070   4.060
 1613SOL    HW2 7846   3.361   0.123   4.154
 1614SOL     OW 7847   2.111   1.785   4.965
 1614SOL    HW1 7848   2.168   1.720   5.015
 1614SOL    HW2 7849   2.095   1.752   4.872
 1615SOL     OW 7850   2.244   0.700   4.204
 1615SOL    HW1 7851   2.289   0.610   4.201
 1615SOL    HW2 7852   2.150   0.689   4.237
 1616SOL     OW 7853   2.476   0.122   3.841
 1616SOL    HW1 7854   2.574   0.100   3.848
 1616SOL    HW2 7855   2.445   0.105   3.748
 1617SOL     OW 7856   2.665   1.402   4.648
 1617SOL    HW1 7857   2.755   1.416   4.606
 1617SOL    HW2 7858   2.594   1.404   4.577
 1618SOL     OW 7859   2.784   0.503   4.623
 1618SOL    HW1 7860   2.759   0.494   4.527
 1618SOL    HW2 7861   2.832   0.421   4.654
 1619SOL     OW 7862   2.401   0.064   4.236
 1619SOL    HW1 7863   2.320   0.065   4.294
 1619SOL    HW2 7864   2.404   0.147   4.181
 1620SOL     OW 7865   3.296   1.188   3.765
 1620SOL    HW1 7866   3.328   1.112   3.822
 1620SOL    HW2 7867   3.204   1.215   3.795
 1621SOL     OW 7868   2.159   0.035   3.895
 1621SOL    HW1 7869   2.208   0.119   3.874
 1621SOL    HW2 7870   2.221  -0.030   3.940
 1622SOL     OW 7871   2.797   0.236   4.204
 1622SOL    HW1 7872   2.749   0.277   4.126
 1622SOL    HW2 7873   2.896   0.234   4.185
 1623SOL     OW 7874   2.321   1.152   4.465
 1623SOL    HW1 7875   2.250   1.125   4.530
 1623SOL    HW2 7876   2.295   1.124   4.372
 1624SOL     OW 7877   3.133   1.797   4.315
 1624SOL    HW1 7878   3.177   1.861   4.251
 1624SOL    HW2 7879   3.083   1.849   4.385
 1625SOL     OW 7880   2.894   0.549   3.740
 1625SOL    HW1 7881   2.853   0.631   3.701
 1625SOL    HW2 7882   2.958   0.575   3.813
 1626SOL     OW 7883   2.728   0.454   4.366
 1626SOL    HW1 7884   2.696   0.526   4.304
 1626SOL    HW2 7885   2.752   0.373   4.313
 1627SOL     OW 7886   2.879   0.039   4.477
 1627SOL    HW1 7887   2.807   0.044   4.408
 1627SOL    HW2 7888   2.855  -0.030   4.546
 1628SOL     OW 7889   3.291   1.173   4.591
 1628SOL    HW1 7890   3.236   1.089   4.584
 1628SOL    HW2 7891   3.317   1.202   4.499
 1629SOL     OW 7892   3.719   0.833   4.101
 1629SOL    HW1 7893   3.761   0.769   4.165
 1629SOL    HW2 7894   3.681   0.782   4.023
 1630SOL     OW 7895   3.526   1.280   4.381
 1630SOL    HW1 7896   3.625   1.288   4.395
 1630SOL    HW2 7897   3.481   1.364   4.412
 1631SOL     OW 7898   3.252   0.575   3.802
 1631SOL    HW1 7899   3.198   0.554   3.883
 1631SOL    HW2 7900   3.343   0.534   3.811
 1632SOL     OW 7901   2.389   0.256   4.052
 1632SOL    HW1 7902   2.416   0.197   3.977
 1632SOL    HW2 7903   2.389   0.351   4.021
 1633SOL     OW 7904   2.973   1.195   4.824
 1633SOL    HW1 7905   2.933   1.239   4.905
 1633SOL    HW2 7906   2.932   1.232   4.741
 1634SOL     OW 7907   3.500   1.099   4.803
 1634SOL    HW1 7908   3.505   1.180   4.862
 1634SOL    HW2 7909   3.414   1.101   4.752
 1635SOL     OW 7910   2.567   1.050   4.092
 1635SOL    HW1 7911   2.553   1.057   4.191
 1635SOL    HW2 7912   2.651   0.999   4.074
 1636SOL     OW 7913   2.272   0.813   4.975
 1636SOL    HW1 7914   2.358   0.825   5.025
 1636SOL    HW2 7915   2.230   0.726   5.002
 1637SOL     OW 7916   2.229   1.100   4.225
 1637SOL    HW1 7917   2.222   1.183   4.169
 1637SOL    HW2 7918   2.233   1.020   4.165
 1638SOL     OW 7919   2.428   0.537   4.589
 1638SOL    HW1 7920   2.440   0.603   4.515
 1638SOL    HW2 7921   2.474   0.571   4.672
 1639SOL     OW 7922   3.114   1.348   4.112
 1639SOL    HW1 7923   3.164   1.425   4.152
 1639SOL    HW2 7924   3.019   1.350   4.144
 1640SOL     OW 7925   3.134   1.445   4.866
 1640SOL    HW1 7926   3.181   1.458   4.953
 1640SOL    HW2 7927   3.068   1.371   4.875
 1641SOL     OW 7928   3.444   0.639   4.196
 1641SOL    HW1 7929   3.413   0.700   4.269
 1641SOL    HW2 7930   3.494   0.691   4.127
 1642SOL     OW 7931   2.435   0.870   4.753
 1642SOL    HW1 7932   2.479   0.959   4.744
 1642SOL    HW2 7933   2.372   0.870   4.830
 1643SOL     OW 7934   3.222   0.862   4.769
 1643SOL    HW1 7935   3.147   0.862   4.703
 1643SOL    HW2 7936   3.259   0.770   4.778
 1644SOL     OW 7937   3.071   0.525   3.999
 1644SOL    HW1 7938   3.084   0.441   4.053
 1644SOL    HW2 7939   3.042   0.599   4.059
 1645SOL     OW 7940   2.169   0.213   4.955
 1645SOL    HW1 7941   2.146   0.250   5.045
 1645SOL    HW2 7942   2.139   0.118   4.949
 1646SOL     OW 7943   1.899   1.310   5.006
 1646SOL    HW1 7944   1.952   1.261   5.074
 1646SOL    HW2 7945   1.921   1.408   5.011
 1647SOL     OW 7946   2.594   0.634   4.788
 1647SOL    HW1 7947   2.653   0.608   4.712
 1647SOL    HW2 7948   2.566   0.730   4.777
 1648SOL     OW 7949   2.169   0.063   4.342
 1648SOL    HW1 7950   2.158   0.157   4.375
 1648SOL    HW2 7951   2.164   0.000   4.419
 1649SOL     OW 7952   3.484   0.367   4.098
 1649SOL    HW1 7953   3.486   0.291   4.162
 1649SOL    HW2 7954   3.436   0.444   4.138
 1650SOL     OW 7955   3.402   0.274   3.849
 1650SOL    HW1 7956   3.341   0.199   3.872
 1650SOL    HW2 7957   3.424   0.326   3.932
 1651SOL     OW 7958   3.165   0.838   3.766
 1651SOL    HW1 7959   3.199   0.745   3.781
 1651SOL    HW2 7960   3.183   0.865   3.671
 1652SOL     OW 7961   2.181   0.810   4.673
 1652SOL    HW1 7962   2.274   0.846   4.678
 1652SOL    HW2 7963   2.175   0.725   4.725
 1653SOL     OW 7964   2.201   0.509   4.730
 1653SOL    HW1 7965   2.149   0.426   4.713
 1653SOL    HW2 7966   2.278   0.514   4.666
 1654SOL     OW 7967   3.022   0.207   5.201
 1654SOL    HW1 7968   3.022   0.271   5.278
 1654SOL    HW2 7969   3.050   0.255   5.118
 1655SOL     OW 7970   1.870   1.326   3.924
 1655SOL    HW1 7971   1.777   1.347   3.893
 1655SOL    HW2 7972   1.880   1.227   3.937
 1656SOL     OW 7973   1.950   1.801   4.651
 1656SOL    HW1 7974   1.908   1.715   4.624
 1656SOL    HW2 7975   2.044   1.804   4.617
 1657SOL     OW 7976   2.366   1.568   4.634
 1657SOL    HW1 7977   2.432   1.642   4.643
 1657SOL    HW2 7978   2.410   1.489   4.592
 1658SOL     OW 7979   2.864   0.796   4.962
 1658SOL    HW1 7980   2.905   0.764   5.048
 1658SOL    HW2 7981   2.768   0.769   4.959
 1659SOL     OW 7982   1.902   0.544   4.838
 1659SOL    HW1 7983   1.987   0.511   4.797
 1659SOL    HW2 7984   1.915   0.559   4.936
 1660SOL     OW 7985   2.677   0.572   4.049
 1660SOL    HW1 7986   2.684   0.483   4.003
 1660SOL    HW2 7987   2.583   0.606   4.041
 1661SOL     OW 7988   3.519   0.604   4.930
 1661SOL    HW1 7989   3.481   0.535   4.992
 1661SOL    HW2 7990   3.601   0.568   4.886
 1662SOL     OW 7991   2.533   0.464   4.993
 1662SOL    HW1 7992   2.499   0.375   4.963
 1662SOL    HW2 7993   2.559   0.518   4.913
 1663SOL     OW 7994   2.335   0.500   3.915
 1663SOL    HW1 7995   2.396   0.580   3.919
 1663SOL    HW2 7996   2.240   0.531   3.922
 1664SOL     OW 7997   2.021   1.137   5.190
 1664SOL    HW1 7998   2.043   1.076   5.266
 1664SOL    HW2 7999   2.031   1.088   5.104
 1665SOL     OW 8000   3.209   1.059   4.958
 1665SOL    HW1 8001   3.233   0.996   4.884
 1665SOL    HW2 8002   3.119   1.099   4.940
 1666SOL     OW 8003   3.164   0.855   4.033
 1666SOL    HW1 8004   3.078   0.824   4.075
 1666SOL    HW2 8005   3.160   0.841   3.934
 1667SOL     OW 8006   3.621   1.747   4.878
 1667SOL    HW1 8007   3.682   1.777   4.805
 1667SOL    HW2 8008   3.583   1.658   4.856
 1668SOL     OW 8009   1.945   1.258   4.746
 1668SOL    HW1 8010   1.940   1.257   4.846
 1668SOL    HW2 8011   1.862   1.217   4.708
 1669SOL     OW 8012   3.588   0.135   4.247
 1669SOL    HW1 8013   3.661   0.118   4.180
 1669SOL    HW2 8014   3.557   0.048   4.285
 1670SOL     OW 8015   3.250   1.573   4.201
 1670SOL    HW1 8016   3.317   1.585   4.127
 1670SOL    HW2 8017   3.210   1.662   4.224
 1671SOL     OW 8018   3.512   1.720   5.118
 1671SOL    HW1 8019   3.565   1.730   5.034
 1671SOL    HW2 8020   3.485   1.810   5.152
 1672SOL     OW 8021   3.703   0.175   4.687
 1672SOL    HW1 8022   3.742   0.090   4.651
 1672SOL    HW2 8023   3.605   0.177   4.668
 1673SOL     OW 8024   2.125   0.326   4.444
 1673SOL    HW1 8025   2.046   0.377   4.410
 1673SOL    HW2 8026   2.116   0.311   4.542
 1674SOL     OW 8027   2.684   1.002   5.096
 1674SOL    HW1 8028   2.724   1.001   5.004
 1674SOL    HW2 8029   2.694   1.094   5.136
 1675SOL     OW 8030   2.778   0.910   4.015
 1675SOL    HW1 8031   2.841   0.948   3.947
 1675SOL    HW2 8032   2.818   0.827   4.054
 1676SOL     OW 8033   2.901   1.098   4.420
 1676SOL    HW1 8034   2.831   1.051   4.474
 1676SOL    HW2 8035   2.960   1.030   4.377
 1677SOL     OW 8036   2.876   0.236   4.695
 1677SOL    HW1 8037   2.868   0.200   4.602
 1677SOL    HW2 8038   2.874   0.160   4.760
 1678SOL     OW 8039   2.452   1.487   4.215
 1678SOL    HW1 8040   2.494   1.429   4.145
 1678SOL    HW2 8041   2.408   1.566   4.171
 1679SOL     OW 8042   3.571   0.385   5.105
 1679SOL    HW1 8043   3.644   0.454   5.109
 1679SOL    HW2 8044   3.599   0.310   5.046
 1680SOL     OW 8045   2.117   1.348   4.014
 1680SOL    HW1 8046   2.021   1.349   3.987
 1680SOL    HW2 8047   2.129   1.401   4.098
 1681SOL     OW 8048   1.937   0.345   3.757
 1681SOL    HW1 8049   1.845   0.317   3.728
 1681SOL    HW2 8050   1.968   0.422   3.701
 1682SOL     OW 8051   1.934   0.166   4.042
 1682SOL    HW1 8052   1.917   0.249   3.988
 1682SOL    HW2 8053   2.024   0.129   4.020
 1683SOL     OW 8054   3.045   1.335   3.843
 1683SOL    HW1 8055   2.946   1.324   3.845
 1683SOL    HW2 8056   3.079   1.350   3.936
 1684SOL     OW 8057   3.355   1.767   4.683
 1684SOL    HW1 8058   3.388   1.831   4.614
 1684SOL    HW2 8059   3.421   1.761   4.758
 1685SOL     OW 8060   3.536   0.883   4.978
 1685SOL    HW1 8061   3.509   0.794   4.941
 1685SOL    HW2 8062   3.537   0.951   4.905
 1686SOL     OW 8063   3.087   0.325   4.173
 1686SOL    HW1 8064   3.152   0.251   4.162
 1686SOL    HW2 8065   3.107   0.375   4.257
 1687SOL     OW 8066   2.456   0.745   4.376
 1687SOL    HW1 8067   2.506   0.830   4.357
 1687SOL    HW2 8068   2.368   0.747   4.328
 1688SOL     OW 8069   3.592   0.934   5.241
 1688SOL    HW1 8070   3.630   1.025   5.256
 1688SOL    HW2 8071   3.584   0.917   5.142
 1689SOL     OW 8072   2.523   1.790   4.677
 1689SOL    HW1 8073   2.477   1.878   4.664
 1689SOL    HW2 8074   2.622   1.802   4.670
 1690SOL     OW 8075   2.721   0.956   4.585
 1690SOL    HW1 8076   2.775   0.887   4.633
 1690SOL    HW2 8077   2.689   1.025   4.651
 1691SOL     OW 8078   2.945   0.984   3.811
 1691SOL    HW1 8079   2.922   1.037   3.729
 1691SOL    HW2 8080   3.026   0.928   3.792
 1692SOL     OW 8081   3.723   1.569   4.575
 1692SOL    HW1 8082   3.652   1.557   4.505
 1692SOL    HW2 8083   3.724   1.490   4.635
 1693SOL     OW 8084   1.941   1.240   4.377
 1693SOL    HW1 8085   1.940   1.193   4.465
 1693SOL    HW2 8086   2.023   1.212   4.326
 1694SOL     OW 8087   3.686   0.192   4.951
 1694SOL    HW1 8088   3.682   0.102   4.995
 1694SOL    HW2 8089   3.689   0.181   4.852
 1695SOL     OW 8090   2.290   0.424   4.244
 1695SOL    HW1 8091   2.320   0.352   4.182
 1695SOL    HW2 8092   2.251   0.384   4.327
 1696SOL     OW 8093   3.567   1.487   4.828
 1696SOL    HW1 8094   3.474   1.462   4.801
 1696SOL    HW2 8095   3.593   1.437   4.910
 1697SOL     OW 8096   2.674   1.586   4.411
 1697SOL    HW1 8097   2.706   1.596   4.317
 1697SOL    HW2 8098   2.595   1.524   4.413
 1698SOL     OW 8099   3.286   0.214   4.836
 1698SOL    HW1 8100   3.338   0.149   4.891
 1698SOL    HW2 8101   3.237   0.277   4.897
 1699SOL     OW 8102   2.863   0.034   4.878
 1699SOL    HW1 8103   2.800  -0.038   4.847
 1699SOL    HW2 8104   2.956  -0.002   4.878
 1700SOL     OW 8105   2.632   1.330   4.025
 1700SOL    HW1 8106   2.586   1.243   4.042
 1700SOL    HW2 8107   2.723   1.327   4.066
 1701SOL     OW 8108   3.214   0.052   3.892
 1701SOL    HW1 8109   3.249   0.011   3.808
 1701SOL    HW2 8110   3.124   0.014   3.912
 1702SOL     OW 8111   3.162   0.453   4.415
 1702SOL    HW1 8112   3.103   0.533   4.419
 1702SOL    HW2 8113   3.177   0.418   4.508
 1703SOL     OW 8114   3.455   0.221   4.606
 1703SOL    HW1 8115   3.371   0.220   4.660
 1703SOL    HW2 8116   3.457   0.304   4.550
 1704SOL     OW 8117   1.901   1.077   4.024
 1704SOL    HW1 8118   2.000   1.066   4.015
 1704SOL    HW2 8119   1.861   0.991   4.056
 1705SOL     OW 8120   2.092   2.490   0.113
 1705SOL    HW1 8121   1.999   2.488   0.150
 1705SOL    HW2 8122   2.093   2.451   0.021
 1706SOL     OW 8123   1.881   2.230   0.647
 1706SOL    HW1 8124   1.799   2.273   0.686
 1706SOL    HW2 8125   1.853   2.157   0.584
 1707SOL     OW 8126   3.417   3.373   0.703
 1707SOL    HW1 8127   3.360   3.357   0.784
 1707SOL    HW2 8128   3.358   3.383   0.623
 1708SOL     OW 8129   2.997   2.565   0.717
 1708SOL    HW1 8130   3.054   2.643   0.692
 1708SOL    HW2 8131   2.937   2.591   0.793
 1709SOL     OW 8132   3.617   2.469   0.231
 1709SOL    HW1 8133   3.605   2.456   0.132
 1709SOL    HW2 8134   3.587   2.388   0.280
 1710SOL     OW 8135   2.547   2.874   0.665
 1710SOL    HW1 8136   2.616   2.858   0.735
 1710SOL    HW2 8137   2.474   2.931   0.703
 1711SOL     OW 8138   3.465   2.309   0.737
 1711SOL    HW1 8139   3.391   2.355   0.687
 1711SOL    HW2 8140   3.516   2.377   0.790
 1712SOL     OW 8141   2.093   3.575   0.483
 1712SOL    HW1 8142   2.127   3.652   0.537
 1712SOL    HW2 8143   2.137   3.575   0.393
 1713SOL     OW 8144   2.092   3.296   0.538
 1713SOL    HW1 8145   2.066   3.392   0.538
 1713SOL    HW2 8146   2.021   3.242   0.583
 1714SOL     OW 8147   2.102   2.953   0.886
 1714SOL    HW1 8148   2.116   2.869   0.938
 1714SOL    HW2 8149   2.047   3.017   0.941
 1715SOL     OW 8150   2.468   2.826   0.123
 1715SOL    HW1 8151   2.475   2.910   0.069
 1715SOL    HW2 8152   2.514   2.839   0.211
 1716SOL     OW 8153   1.984   2.505   0.563
 1716SOL    HW1 8154   1.939   2.417   0.580
 1716SOL    HW2 8155   1.983   2.559   0.647
 1717SOL     OW 8156   3.704   3.629   0.359
 1717SOL    HW1 8157   3.758   3.600   0.439
 1717SOL    HW2 8158   3.734   3.719   0.330
 1718SOL     OW 8159   1.889   3.458   0.117
 1718SOL    HW1 8160   1.870   3.362   0.138
 1718SOL    HW2 8161   1.856   3.516   0.192
 1719SOL     OW 8162   3.551   2.784   0.612
 1719SOL    HW1 8163   3.646   2.755   0.620
 1719SOL    HW2 8164   3.543   2.849   0.537
 1720SOL     OW 8165   3.503   2.970   0.432
 1720SOL    HW1 8166   3.589   2.972   0.380
 1720SOL    HW2 8167   3.517   3.017   0.520
 1721SOL     OW 8168   2.475   3.227   0.726
 1721SOL    HW1 8169   2.426   3.140   0.735
 1721SOL    HW2 8170   2.452   3.270   0.639
 1722SOL     OW 8171   2.671   1.866   0.502
 1722SOL    HW1 8172   2.711   1.957   0.493
 1722SOL    HW2 8173   2.571   1.874   0.508
 1723SOL     OW 8174   3.387   2.861   0.190
 1723SOL    HW1 8175   3.324   2.785   0.203
 1723SOL    HW2 8176   3.435   2.879   0.276
 1724SOL     OW 8177   3.529   3.576   0.572
 1724SOL    HW1 8178   3.488   3.553   0.484
 1724SOL    HW2 8179   3.511   3.502   0.637
 1725SOL     OW 8180   2.460   2.591   0.270
 1725SOL    HW1 8181   2.484   2.660   0.202
 1725SOL    HW2 8182   2.382   2.624   0.324
 1726SOL     OW 8183   3.438   3.524   0.307
 1726SOL    HW1 8184   3.527   3.570   0.310
 1726SOL    HW2 8185   3.417   3.500   0.212
 1727SOL     OW 8186   2.903   2.563   0.429
 1727SOL    HW1 8187   2.929   2.559   0.525
 1727SOL    HW2 8188   2.818   2.512   0.415
 1728SOL     OW 8189   2.727   2.210   0.195
 1728SOL    HW1 8190   2.786   2.273   0.146
 1728SOL    HW2 8191   2.746   2.116   0.166
 1729SOL     OW 8192   3.224   3.006   0.545
 1729SOL    HW1 8193   3.307   2.977   0.497
 1729SOL    HW2 8194   3.175   3.073   0.489
 1730SOL     OW 8195   2.870   3.318   0.477
 1730SOL    HW1 8196   2.824   3.390   0.425
 1730SOL    HW2 8197   2.866   3.338   0.575
 1731SOL     OW 8198   2.213   3.663   0.853
 1731SOL    HW1 8199   2.263   3.577   0.859
 1731SOL    HW2 8200   2.278   3.740   0.850
 1732SOL     OW 8201   3.657   2.928   0.873
 1732SOL    HW1 8202   3.595   2.913   0.797
 1732SOL    HW2 8203   3.605   2.939   0.958
 1733SOL     OW 8204   2.183   2.805   0.242
 1733SOL    HW1 8205   2.265   2.844   0.200
 1733SOL    HW2 8206   2.156   2.723   0.193
 1734SOL     OW 8207   2.973   3.638   0.237
 1734SOL    HW1 8208   2.913   3.576   0.287
 1734SOL    HW2 8209   3.004   3.594   0.152
 1735SOL     OW 8210   3.494   3.239   0.081
 1735SOL    HW1 8211   3.462   3.333   0.071
 1735SOL    HW2 8212   3.418   3.176   0.069
 1736SOL     OW 8213   2.326   3.605   0.323
 1736SOL    HW1 8214   2.359   3.644   0.409
 1736SOL    HW2 8215   2.402   3.598   0.258
 1737SOL     OW 8216   3.262   1.969   0.426
 1737SOL    HW1 8217   3.238   1.932   0.336
 1737SOL    HW2 8218   3.361   1.985   0.430
 1738SOL     OW 8219   2.111   3.647   1.241
 1738SOL    HW1 8220   2.168   3.582   1.291
 1738SOL    HW2 8221   2.095   3.614   1.148
 1739SOL     OW 8222   2.802   3.560   0.904
 1739SOL    HW1 8223   2.882   3.503   0.925
 1739SOL    HW2 8224   2.753   3.520   0.827
 1740SOL     OW 8225   2.244   2.562   0.480
 1740SOL    HW1 8226   2.289   2.472   0.477
 1740SOL    HW2 8227   2.150   2.551   0.513
 1741SOL     OW 8228   2.476   1.984   0.117
 1741SOL    HW1 8229   2.574   1.962   0.124
 1741SOL    HW2 8230   2.445   1.967   0.024
 1742SOL     OW 8231   2.401   1.926   0.512
 1742SOL    HW1 8232   2.320   1.927   0.570
 1742SOL    HW2 8233   2.404   2.009   0.457
 1743SOL     OW 8234   3.296   3.050   0.041
 1743SOL    HW1 8235   3.328   2.974   0.098
 1743SOL    HW2 8236   3.204   3.077   0.071
 1744SOL     OW 8237   2.159   1.897   0.171
 1744SOL    HW1 8238   2.208   1.981   0.150
 1744SOL    HW2 8239   2.221   1.832   0.216
 1745SOL     OW 8240   2.797   2.098   0.480
 1745SOL    HW1 8241   2.749   2.139   0.402
 1745SOL    HW2 8242   2.896   2.096   0.461
 1746SOL     OW 8243   3.089   3.432   0.793
 1746SOL    HW1 8244   3.110   3.506   0.728
 1746SOL    HW2 8245   3.157   3.432   0.866
 1747SOL     OW 8246   2.321   3.014   0.741
 1747SOL    HW1 8247   2.250   2.987   0.806
 1747SOL    HW2 8248   2.295   2.986   0.648
 1748SOL     OW 8249   3.133   3.659   0.591
 1748SOL    HW1 8250   3.177   3.723   0.527
 1748SOL    HW2 8251   3.083   3.711   0.661
 1749SOL     OW 8252   2.894   2.411   0.016
 1749SOL    HW1 8253   2.853   2.493  -0.023
 1749SOL    HW2 8254   2.958   2.437   0.089
 1750SOL     OW 8255   2.728   2.316   0.642
 1750SOL    HW1 8256   2.696   2.388   0.580
 1750SOL    HW2 8257   2.752   2.235   0.589
 1751SOL     OW 8258   3.719   2.695   0.377
 1751SOL    HW1 8259   3.761   2.631   0.441
 1751SOL    HW2 8260   3.681   2.644   0.299
 1752SOL     OW 8261   2.350   3.247   0.174
 1752SOL    HW1 8262   2.263   3.232   0.221
 1752SOL    HW2 8263   2.333   3.273   0.079
 1753SOL     OW 8264   3.526   3.142   0.657
 1753SOL    HW1 8265   3.625   3.150   0.671
 1753SOL    HW2 8266   3.481   3.226   0.688
 1754SOL     OW 8267   3.252   2.437   0.078
 1754SOL    HW1 8268   3.198   2.416   0.159
 1754SOL    HW2 8269   3.343   2.396   0.087
 1755SOL     OW 8270   2.389   2.118   0.328
 1755SOL    HW1 8271   2.416   2.059   0.253
 1755SOL    HW2 8272   2.389   2.213   0.297
 1756SOL     OW 8273   2.567   2.912   0.368
 1756SOL    HW1 8274   2.553   2.919   0.467
 1756SOL    HW2 8275   2.651   2.861   0.350
 1757SOL     OW 8276   2.229   2.962   0.501
 1757SOL    HW1 8277   2.222   3.045   0.445
 1757SOL    HW2 8278   2.233   2.882   0.441
 1758SOL     OW 8279   3.114   3.210   0.388
 1758SOL    HW1 8280   3.164   3.287   0.428
 1758SOL    HW2 8281   3.019   3.212   0.420
 1759SOL     OW 8282   3.444   2.501   0.472
 1759SOL    HW1 8283   3.413   2.562   0.545
 1759SOL    HW2 8284   3.494   2.553   0.403
 1760SOL     OW 8285   3.071   2.387   0.275
 1760SOL    HW1 8286   3.084   2.303   0.329
 1760SOL    HW2 8287   3.042   2.461   0.335
 1761SOL     OW 8288   3.484   2.229   0.374
 1761SOL    HW1 8289   3.486   2.153   0.438
 1761SOL    HW2 8290   3.436   2.306   0.414
 1762SOL     OW 8291   3.402   2.136   0.125
 1762SOL    HW1 8292   3.341   2.061   0.148
 1762SOL    HW2 8293   3.424   2.188   0.208
 1763SOL     OW 8294   3.165   2.700   0.042
 1763SOL    HW1 8295   3.199   2.607   0.057
 1763SOL    HW2 8296   3.183   2.727  -0.053
 1764SOL     OW 8297   1.870   3.188   0.200
 1764SOL    HW1 8298   1.777   3.209   0.169
 1764SOL    HW2 8299   1.880   3.089   0.213
 1765SOL     OW 8300   1.950   3.663   0.927
 1765SOL    HW1 8301   1.908   3.577   0.900
 1765SOL    HW2 8302   2.044   3.666   0.893
 1766SOL     OW 8303   2.366   3.430   0.910
 1766SOL    HW1 8304   2.432   3.504   0.919
 1766SOL    HW2 8305   2.410   3.351   0.868
 1767SOL     OW 8306   2.677   2.434   0.325
 1767SOL    HW1 8307   2.684   2.345   0.279
 1767SOL    HW2 8308   2.583   2.468   0.317
 1768SOL     OW 8309   2.335   2.362   0.191
 1768SOL    HW1 8310   2.396   2.442   0.195
 1768SOL    HW2 8311   2.240   2.393   0.198
 1769SOL     OW 8312   3.164   2.717   0.309
 1769SOL    HW1 8313   3.078   2.686   0.351
 1769SOL    HW2 8314   3.160   2.703   0.210
 1770SOL     OW 8315   3.621   3.609   1.154
 1770SOL    HW1 8316   3.682   3.639   1.081
 1770SOL    HW2 8317   3.583   3.520   1.132
 1771SOL     OW 8318   2.765   1.948   0.133
 1771SOL    HW1 8319   2.816   1.949   0.047
 1771SOL    HW2 8320   2.821   1.906   0.204
 1772SOL     OW 8321   3.588   1.997   0.523
 1772SOL    HW1 8322   3.661   1.980   0.456
 1772SOL    HW2 8323   3.557   1.910   0.561
 1773SOL     OW 8324   3.250   3.435   0.477
 1773SOL    HW1 8325   3.317   3.447   0.403
 1773SOL    HW2 8326   3.210   3.524   0.500
 1774SOL     OW 8327   2.534   3.478   0.154
 1774SOL    HW1 8328   2.543   3.488   0.055
 1774SOL    HW2 8329   2.494   3.389   0.175
 1775SOL     OW 8330   3.703   2.037   0.963
 1775SOL    HW1 8331   3.742   1.952   0.927
 1775SOL    HW2 8332   3.605   2.039   0.944
 1776SOL     OW 8333   2.125   2.188   0.720
 1776SOL    HW1 8334   2.046   2.239   0.686
 1776SOL    HW2 8335   2.116   2.173   0.818
 1777SOL     OW 8336   3.056   3.474   0.031
 1777SOL    HW1 8337   3.062   3.381   0.068
 1777SOL    HW2 8338   2.997   3.474  -0.049
 1778SOL     OW 8339   2.778   2.772   0.291
 1778SOL    HW1 8340   2.841   2.810   0.223
 1778SOL    HW2 8341   2.818   2.689   0.330
 1779SOL     OW 8342   3.366   3.469   0.044
 1779SOL    HW1 8343   3.274   3.506   0.051
 1779SOL    HW2 8344   3.404   3.489  -0.046
 1780SOL     OW 8345   2.452   3.349   0.491
 1780SOL    HW1 8346   2.494   3.291   0.421
 1780SOL    HW2 8347   2.408   3.428   0.447
 1781SOL     OW 8348   2.117   3.210   0.290
 1781SOL    HW1 8349   2.021   3.211   0.263
 1781SOL    HW2 8350   2.129   3.263   0.374
 1782SOL     OW 8351   1.934   2.028   0.318
 1782SOL    HW1 8352   1.917   2.111   0.264
 1782SOL    HW2 8353   2.024   1.991   0.296
 1783SOL     OW 8354   3.045   3.197   0.119
 1783SOL    HW1 8355   2.946   3.186   0.121
 1783SOL    HW2 8356   3.079   3.212   0.212
 1784SOL     OW 8357   3.355   3.629   0.959
 1784SOL    HW1 8358   3.388   3.693   0.890
 1784SOL    HW2 8359   3.421   3.623   1.034
 1785SOL     OW 8360   3.087   2.187   0.449
 1785SOL    HW1 8361   3.152   2.113   0.438
 1785SOL    HW2 8362   3.107   2.237   0.533
 1786SOL     OW 8363   2.456   2.607   0.652
 1786SOL    HW1 8364   2.506   2.692   0.633
 1786SOL    HW2 8365   2.368   2.609   0.604
 1787SOL     OW 8366   2.721   3.236   0.016
 1787SOL    HW1 8367   2.675   3.251   0.104
 1787SOL    HW2 8368   2.765   3.321  -0.014
 1788SOL     OW 8369   2.523   3.652   0.953
 1788SOL    HW1 8370   2.477   3.740   0.940
 1788SOL    HW2 8371   2.622   3.664   0.946
 1789SOL     OW 8372   2.945   2.846   0.087
 1789SOL    HW1 8373   2.922   2.899   0.005
 1789SOL    HW2 8374   3.026   2.790   0.068
 1790SOL     OW 8375   3.723   3.431   0.851
 1790SOL    HW1 8376   3.652   3.419   0.781
 1790SOL    HW2 8377   3.724   3.352   0.911
 1791SOL     OW 8378   1.941   3.102   0.653
 1791SOL    HW1 8379   1.940   3.055   0.741
 1791SOL    HW2 8380   2.023   3.074   0.602
 1792SOL     OW 8381   2.290   2.286   0.520
 1792SOL    HW1 8382   2.320   2.214   0.458
 1792SOL    HW2 8383   2.251   2.246   0.603
 1793SOL     OW 8384   2.674   3.448   0.687
 1793SOL    HW1 8385   2.706   3.458   0.593
 1793SOL    HW2 8386   2.595   3.386   0.689
 1794SOL     OW 8387   2.632   3.192   0.301
 1794SOL    HW1 8388   2.586   3.105   0.318
 1794SOL    HW2 8389   2.723   3.189   0.342
 1795SOL     OW 8390   3.214   1.914   0.168
 1795SOL    HW1 8391   3.249   1.873   0.084
 1795SOL    HW2 8392   3.124   1.876   0.188
 1796SOL     OW 8393   3.455   2.083   0.882
 1796SOL    HW1 8394   3.371   2.082   0.936
 1796SOL    HW2 8395   3.457   2.166   0.826
 1797SOL     OW 8396   2.737   3.508   0.337
 1797SOL    HW1 8397   2.660   3.473   0.283
 1797SOL    HW2 8398   2.705   3.579   0.399
 1798SOL     OW 8399   1.992   3.656   3.713
 1798SOL    HW1 8400   1.951   3.582   3.766
 1798SOL    HW2 8401   2.056   3.707   3.771
 1799SOL     OW 8402   3.512   3.582   3.256
 1799SOL    HW1 8403   3.565   3.592   3.172
 1799SOL    HW2 8404   3.485   3.672   3.290
 1800SOL     OW 8405   2.087   2.137   4.720
 1800SOL    HW1 8406   2.122   2.120   4.812
 1800SOL    HW2 8407   1.999   2.092   4.708
 1801SOL     OW 8408   3.417   3.373   4.427
 1801SOL    HW1 8409   3.360   3.357   4.508
 1801SOL    HW2 8410   3.358   3.383   4.347
 1802SOL     OW 8411   2.997   2.565   4.441
 1802SOL    HW1 8412   3.054   2.643   4.416
 1802SOL    HW2 8413   2.937   2.591   4.517
 1803SOL     OW 8414   2.630   3.006   4.747
 1803SOL    HW1 8415   2.552   3.023   4.807
 1803SOL    HW2 8416   2.664   3.093   4.711
 1804SOL     OW 8417   2.547   2.874   4.389
 1804SOL    HW1 8418   2.616   2.858   4.459
 1804SOL    HW2 8419   2.474   2.931   4.427
 1805SOL     OW 8420   2.197   3.297   4.785
 1805SOL    HW1 8421   2.119   3.266   4.732
 1805SOL    HW2 8422   2.255   3.355   4.728
 1806SOL     OW 8423   3.465   2.309   4.461
 1806SOL    HW1 8424   3.391   2.355   4.411
 1806SOL    HW2 8425   3.516   2.377   4.514
 1807SOL     OW 8426   2.093   3.575   4.207
 1807SOL    HW1 8427   2.127   3.652   4.261
 1807SOL    HW2 8428   2.137   3.575   4.117
 1808SOL     OW 8429   2.092   3.296   4.262
 1808SOL    HW1 8430   2.066   3.392   4.262
 1808SOL    HW2 8431   2.021   3.242   4.307
 1809SOL     OW 8432   1.984   2.505   4.287
 1809SOL    HW1 8433   1.939   2.417   4.304
 1809SOL    HW2 8434   1.983   2.559   4.371
 1810SOL     OW 8435   3.704   3.629   4.083
 1810SOL    HW1 8436   3.758   3.600   4.163
 1810SOL    HW2 8437   3.734   3.719   4.054
 1811SOL     OW 8438   1.889   3.458   3.841
 1811SOL    HW1 8439   1.870   3.362   3.862
 1811SOL    HW2 8440   1.856   3.516   3.916
 1812SOL     OW 8441   3.551   2.784   4.336
 1812SOL    HW1 8442   3.646   2.755   4.344
 1812SOL    HW2 8443   3.543   2.849   4.261
 1813SOL     OW 8444   3.503   2.970   4.156
 1813SOL    HW1 8445   3.589   2.972   4.104
 1813SOL    HW2 8446   3.517   3.017   4.244
 1814SOL     OW 8447   2.671   1.866   4.226
 1814SOL    HW1 8448   2.711   1.957   4.217
 1814SOL    HW2 8449   2.571   1.874   4.232
 1815SOL     OW 8450   3.328   3.279   4.677
 1815SOL    HW1 8451   3.269   3.285   4.757
 1815SOL    HW2 8452   3.313   3.191   4.631
 1816SOL     OW 8453   3.529   3.576   4.296
 1816SOL    HW1 8454   3.488   3.553   4.208
 1816SOL    HW2 8455   3.511   3.502   4.361
 1817SOL     OW 8456   3.143   2.207   4.668
 1817SOL    HW1 8457   3.057   2.157   4.655
 1817SOL    HW2 8458   3.205   2.153   4.724
 1818SOL     OW 8459   3.438   3.524   4.031
 1818SOL    HW1 8460   3.527   3.570   4.034
 1818SOL    HW2 8461   3.417   3.500   3.936
 1819SOL     OW 8462   1.938   2.673   4.513
 1819SOL    HW1 8463   2.037   2.661   4.522
 1819SOL    HW2 8464   1.914   2.768   4.534
 1820SOL     OW 8465   3.224   3.006   4.269
 1820SOL    HW1 8466   3.307   2.977   4.221
 1820SOL    HW2 8467   3.175   3.073   4.213
 1821SOL     OW 8468   2.412   2.058   4.609
 1821SOL    HW1 8469   2.407   2.053   4.709
 1821SOL    HW2 8470   2.414   2.154   4.580
 1822SOL     OW 8471   2.213   3.663   4.577
 1822SOL    HW1 8472   2.263   3.577   4.583
 1822SOL    HW2 8473   2.278   3.740   4.574
 1823SOL     OW 8474   3.657   2.928   4.597
 1823SOL    HW1 8475   3.595   2.913   4.521
 1823SOL    HW2 8476   3.605   2.939   4.682
 1824SOL     OW 8477   3.320   2.597   4.452
 1824SOL    HW1 8478   3.315   2.532   4.527
 1824SOL    HW2 8479   3.400   2.656   4.465
 1825SOL     OW 8480   2.973   3.638   3.961
 1825SOL    HW1 8481   2.913   3.576   4.011
 1825SOL    HW2 8482   3.004   3.594   3.876
 1826SOL     OW 8483   2.326   3.605   4.047
 1826SOL    HW1 8484   2.359   3.644   4.133
 1826SOL    HW2 8485   2.402   3.598   3.982
 1827SOL     OW 8486   3.262   1.969   4.150
 1827SOL    HW1 8487   3.238   1.932   4.060
 1827SOL    HW2 8488   3.361   1.985   4.154
 1828SOL     OW 8489   2.111   3.647   4.965
 1828SOL    HW1 8490   2.168   3.582   5.015
 1828SOL    HW2 8491   2.095   3.614   4.872
 1829SOL     OW 8492   2.802   3.560   4.628
 1829SOL    HW1 8493   2.882   3.503   4.649
 1829SOL    HW2 8494   2.753   3.520   4.551
 1830SOL     OW 8495   2.665   3.264   4.648
 1830SOL    HW1 8496   2.755   3.278   4.606
 1830SOL    HW2 8497   2.594   3.266   4.577
 1831SOL     OW 8498   2.784   2.365   4.623
 1831SOL    HW1 8499   2.759   2.356   4.527
 1831SOL    HW2 8500   2.832   2.283   4.654
 1832SOL     OW 8501   2.401   1.926   4.236
 1832SOL    HW1 8502   2.320   1.927   4.294
 1832SOL    HW2 8503   2.404   2.009   4.181
 1833SOL     OW 8504   3.089   3.432   4.517
 1833SOL    HW1 8505   3.110   3.506   4.452
 1833SOL    HW2 8506   3.157   3.432   4.590
 1834SOL     OW 8507   2.321   3.014   4.465
 1834SOL    HW1 8508   2.250   2.987   4.530
 1834SOL    HW2 8509   2.295   2.986   4.372
 1835SOL     OW 8510   3.133   3.659   4.315
 1835SOL    HW1 8511   3.177   3.723   4.251
 1835SOL    HW2 8512   3.083   3.711   4.385
 1836SOL     OW 8513   2.728   2.316   4.366
 1836SOL    HW1 8514   2.696   2.388   4.304
 1836SOL    HW2 8515   2.752   2.235   4.313
 1837SOL     OW 8516   3.291   3.035   4.591
 1837SOL    HW1 8517   3.236   2.951   4.584
 1837SOL    HW2 8518   3.317   3.064   4.499
 1838SOL     OW 8519   3.328   2.452   4.716
 1838SOL    HW1 8520   3.298   2.357   4.723
 1838SOL    HW2 8521   3.401   2.468   4.782
 1839SOL     OW 8522   3.719   2.695   4.101
 1839SOL    HW1 8523   3.761   2.631   4.165
 1839SOL    HW2 8524   3.681   2.644   4.023
 1840SOL     OW 8525   3.526   3.142   4.381
 1840SOL    HW1 8526   3.625   3.150   4.395
 1840SOL    HW2 8527   3.481   3.226   4.412
 1841SOL     OW 8528   2.973   3.057   4.824
 1841SOL    HW1 8529   2.933   3.101   4.905
 1841SOL    HW2 8530   2.932   3.094   4.741
 1842SOL     OW 8531   3.500   2.961   4.803
 1842SOL    HW1 8532   3.505   3.042   4.862
 1842SOL    HW2 8533   3.414   2.963   4.752
 1843SOL     OW 8534   2.428   2.399   4.589
 1843SOL    HW1 8535   2.440   2.465   4.515
 1843SOL    HW2 8536   2.474   2.433   4.672
 1844SOL     OW 8537   3.114   3.210   4.112
 1844SOL    HW1 8538   3.164   3.287   4.152
 1844SOL    HW2 8539   3.019   3.212   4.144
 1845SOL     OW 8540   3.134   3.307   4.866
 1845SOL    HW1 8541   3.181   3.320   4.953
 1845SOL    HW2 8542   3.068   3.233   4.875
 1846SOL     OW 8543   3.444   2.501   4.196
 1846SOL    HW1 8544   3.413   2.562   4.269
 1846SOL    HW2 8545   3.494   2.553   4.127
 1847SOL     OW 8546   3.222   2.724   4.769
 1847SOL    HW1 8547   3.147   2.724   4.703
 1847SOL    HW2 8548   3.259   2.632   4.778
 1848SOL     OW 8549   2.169   2.075   4.955
 1848SOL    HW1 8550   2.146   2.112   5.045
 1848SOL    HW2 8551   2.139   1.980   4.949
 1849SOL     OW 8552   1.899   3.172   5.006
 1849SOL    HW1 8553   1.952   3.123   5.074
 1849SOL    HW2 8554   1.921   3.270   5.011
 1850SOL     OW 8555   2.594   2.496   4.788
 1850SOL    HW1 8556   2.653   2.470   4.712
 1850SOL    HW2 8557   2.566   2.592   4.777
 1851SOL     OW 8558   2.169   1.925   4.342
 1851SOL    HW1 8559   2.158   2.019   4.375
 1851SOL    HW2 8560   2.164   1.862   4.419
 1852SOL     OW 8561   3.484   2.229   4.098
 1852SOL    HW1 8562   3.486   2.153   4.162
 1852SOL    HW2 8563   3.436   2.306   4.138
 1853SOL     OW 8564   2.885   2.628   4.690
 1853SOL    HW1 8565   2.900   2.649   4.786
 1853SOL    HW2 8566   2.855   2.533   4.681
 1854SOL     OW 8567   3.402   2.136   3.849
 1854SOL    HW1 8568   3.341   2.061   3.872
 1854SOL    HW2 8569   3.424   2.188   3.932
 1855SOL     OW 8570   2.930   3.195   4.573
 1855SOL    HW1 8571   2.937   3.111   4.518
 1855SOL    HW2 8572   2.992   3.264   4.537
 1856SOL     OW 8573   2.181   2.672   4.673
 1856SOL    HW1 8574   2.274   2.708   4.678
 1856SOL    HW2 8575   2.175   2.587   4.725
 1857SOL     OW 8576   2.201   2.371   4.730
 1857SOL    HW1 8577   2.149   2.288   4.713
 1857SOL    HW2 8578   2.278   2.376   4.666
 1858SOL     OW 8579   3.022   2.069   5.201
 1858SOL    HW1 8580   3.022   2.133   5.278
 1858SOL    HW2 8581   3.050   2.117   5.118
 1859SOL     OW 8582   1.950   3.663   4.651
 1859SOL    HW1 8583   1.908   3.577   4.624
 1859SOL    HW2 8584   2.044   3.666   4.617
 1860SOL     OW 8585   2.366   3.430   4.634
 1860SOL    HW1 8586   2.432   3.504   4.643
 1860SOL    HW2 8587   2.410   3.351   4.592
 1861SOL     OW 8588   2.864   2.658   4.962
 1861SOL    HW1 8589   2.905   2.626   5.048
 1861SOL    HW2 8590   2.768   2.631   4.959
 1862SOL     OW 8591   1.902   2.406   4.838
 1862SOL    HW1 8592   1.987   2.373   4.797
 1862SOL    HW2 8593   1.915   2.421   4.936
 1863SOL     OW 8594   2.677   2.434   4.049
 1863SOL    HW1 8595   2.684   2.345   4.003
 1863SOL    HW2 8596   2.583   2.468   4.041
 1864SOL     OW 8597   3.519   2.466   4.930
 1864SOL    HW1 8598   3.481   2.397   4.992
 1864SOL    HW2 8599   3.601   2.430   4.886
 1865SOL     OW 8600   2.533   2.326   4.993
 1865SOL    HW1 8601   2.499   2.237   4.963
 1865SOL    HW2 8602   2.559   2.380   4.913
 1866SOL     OW 8603   2.021   2.999   5.190
 1866SOL    HW1 8604   2.043   2.938   5.266
 1866SOL    HW2 8605   2.031   2.950   5.104
 1867SOL     OW 8606   3.209   2.921   4.958
 1867SOL    HW1 8607   3.233   2.858   4.884
 1867SOL    HW2 8608   3.119   2.961   4.940
 1868SOL     OW 8609   3.621   3.609   4.878
 1868SOL    HW1 8610   3.682   3.639   4.805
 1868SOL    HW2 8611   3.583   3.520   4.856
 1869SOL     OW 8612   1.945   3.120   4.746
 1869SOL    HW1 8613   1.940   3.119   4.846
 1869SOL    HW2 8614   1.862   3.079   4.708
 1870SOL     OW 8615   3.588   1.997   4.247
 1870SOL    HW1 8616   3.661   1.980   4.180
 1870SOL    HW2 8617   3.557   1.910   4.285
 1871SOL     OW 8618   3.250   3.435   4.201
 1871SOL    HW1 8619   3.317   3.447   4.127
 1871SOL    HW2 8620   3.210   3.524   4.224
 1872SOL     OW 8621   3.142   2.789   4.396
 1872SOL    HW1 8622   3.202   2.708   4.398
 1872SOL    HW2 8623   3.182   2.858   4.336
 1873SOL     OW 8624   3.512   3.582   5.118
 1873SOL    HW1 8625   3.565   3.592   5.034
 1873SOL    HW2 8626   3.485   3.672   5.152
 1874SOL     OW 8627   3.703   2.037   4.687
 1874SOL    HW1 8628   3.742   1.952   4.651
 1874SOL    HW2 8629   3.605   2.039   4.668
 1875SOL     OW 8630   2.125   2.188   4.444
 1875SOL    HW1 8631   2.046   2.239   4.410
 1875SOL    HW2 8632   2.116   2.173   4.542
 1876SOL     OW 8633   2.684   2.864   5.096
 1876SOL    HW1 8634   2.724   2.863   5.004
 1876SOL    HW2 8635   2.694   2.956   5.136
 1877SOL     OW 8636   2.901   2.960   4.420
 1877SOL    HW1 8637   2.831   2.913   4.474
 1877SOL    HW2 8638   2.960   2.892   4.377
 1878SOL     OW 8639   2.876   2.098   4.695
 1878SOL    HW1 8640   2.868   2.062   4.602
 1878SOL    HW2 8641   2.874   2.022   4.760
 1879SOL     OW 8642   3.571   2.247   5.105
 1879SOL    HW1 8643   3.644   2.316   5.109
 1879SOL    HW2 8644   3.599   2.172   5.046
 1880SOL     OW 8645   2.117   3.210   4.014
 1880SOL    HW1 8646   2.021   3.211   3.987
 1880SOL    HW2 8647   2.129   3.263   4.098
 1881SOL     OW 8648   3.355   3.629   4.683
 1881SOL    HW1 8649   3.388   3.693   4.614
 1881SOL    HW2 8650   3.421   3.623   4.758
 1882SOL     OW 8651   3.536   2.745   4.978
 1882SOL    HW1 8652   3.509   2.656   4.941
 1882SOL    HW2 8653   3.537   2.813   4.905
 1883SOL     OW 8654   3.087   2.187   4.173
 1883SOL    HW1 8655   3.152   2.113   4.162
 1883SOL    HW2 8656   3.107   2.237   4.257
 1884SOL     OW 8657   2.456   2.607   4.376
 1884SOL    HW1 8658   2.506   2.692   4.357
 1884SOL    HW2 8659   2.368   2.609   4.328
 1885SOL     OW 8660   3.592   2.796   5.241
 1885SOL    HW1 8661   3.630   2.887   5.256
 1885SOL    HW2 8662   3.584   2.779   5.142
 1886SOL     OW 8663   2.523   3.652   4.677
 1886SOL    HW1 8664   2.477   3.740   4.664
 1886SOL    HW2 8665   2.622   3.664   4.670
 1887SOL     OW 8666   2.721   2.818   4.585
 1887SOL    HW1 8667   2.775   2.749   4.633
 1887SOL    HW2 8668   2.689   2.887   4.651
 1888SOL     OW 8669   3.723   3.431   4.575
 1888SOL    HW1 8670   3.652   3.419   4.505
 1888SOL    HW2 8671   3.724   3.352   4.635
 1889SOL     OW 8672   1.941   3.102   4.377
 1889SOL    HW1 8673   1.940   3.055   4.465
 1889SOL    HW2 8674   2.023   3.074   4.326
 1890SOL     OW 8675   3.686   2.054   4.951
 1890SOL    HW1 8676   3.682   1.964   4.995
 1890SOL    HW2 8677   3.689   2.043   4.852
 1891SOL     OW 8678   3.567   3.349   4.828
 1891SOL    HW1 8679   3.474   3.324   4.801
 1891SOL    HW2 8680   3.593   3.299   4.910
 1892SOL     OW 8681   3.286   2.076   4.836
 1892SOL    HW1 8682   3.338   2.011   4.891
 1892SOL    HW2 8683   3.237   2.139   4.897
 1893SOL     OW 8684   2.863   1.896   4.878
 1893SOL    HW1 8685   2.800   1.824   4.847
 1893SOL    HW2 8686   2.956   1.860   4.878
 1894SOL     OW 8687   3.162   2.315   4.415
 1894SOL    HW1 8688   3.103   2.395   4.419
 1894SOL    HW2 8689   3.177   2.280   4.508
 1895SOL     OW 8690   3.455   2.083   4.606
 1895SOL    HW1 8691   3.371   2.082   4.660
 1895SOL    HW2 8692   3.457   2.166   4.550
 1896SOL     OW 8693   2.092   4.352   0.113
 1896SOL    HW1 8694   1.999   4.350   0.150
 1896SOL    HW2 8695   2.093   4.313   0.021
 1897SOL     OW 8696   2.087   3.999   0.996
 1897SOL    HW1 8697   2.122   3.982   1.088
 1897SOL    HW2 8698   1.999   3.954   0.984
 1898SOL     OW 8699   1.881   4.092   0.647
 1898SOL    HW1 8700   1.799   4.135   0.686
 1898SOL    HW2 8701   1.853   4.019   0.584
 1899SOL     OW 8702   2.997   4.427   0.717
 1899SOL    HW1 8703   3.054   4.505   0.692
 1899SOL    HW2 8704   2.937   4.453   0.793
 1900SOL     OW 8705   3.617   4.331   0.231
 1900SOL    HW1 8706   3.605   4.318   0.132
 1900SOL    HW2 8707   3.587   4.250   0.280
 1901SOL     OW 8708   2.630   4.868   1.023
 1901SOL    HW1 8709   2.552   4.885   1.083
 1901SOL    HW2 8710   2.664   4.955   0.987
 1902SOL     OW 8711   2.712   4.522   1.823
 1902SOL    HW1 8712   2.708   4.598   1.888
 1902SOL    HW2 8713   2.734   4.558   1.732
 1903SOL     OW 8714   2.547   4.736   0.665
 1903SOL    HW1 8715   2.616   4.720   0.735
 1903SOL    HW2 8716   2.474   4.793   0.703
 1904SOL     OW 8717   2.548   4.885   1.803
 1904SOL    HW1 8718   2.608   4.964   1.817
 1904SOL    HW2 8719   2.462   4.916   1.762
 1905SOL     OW 8720   2.300   4.116   1.499
 1905SOL    HW1 8721   2.382   4.060   1.508
 1905SOL    HW2 8722   2.219   4.058   1.503
 1906SOL     OW 8723   3.465   4.171   0.737
 1906SOL    HW1 8724   3.391   4.217   0.687
 1906SOL    HW2 8725   3.516   4.239   0.790
 1907SOL     OW 8726   2.102   4.815   0.886
 1907SOL    HW1 8727   2.116   4.731   0.938
 1907SOL    HW2 8728   2.047   4.879   0.941
 1908SOL     OW 8729   2.468   4.688   0.123
 1908SOL    HW1 8730   2.475   4.772   0.069
 1908SOL    HW2 8731   2.514   4.701   0.211
 1909SOL     OW 8732   1.984   4.367   0.563
 1909SOL    HW1 8733   1.939   4.279   0.580
 1909SOL    HW2 8734   1.983   4.421   0.647
 1910SOL     OW 8735   3.551   4.646   0.612
 1910SOL    HW1 8736   3.646   4.617   0.620
 1910SOL    HW2 8737   3.543   4.711   0.537
 1911SOL     OW 8738   3.503   4.832   0.432
 1911SOL    HW1 8739   3.589   4.834   0.380
 1911SOL    HW2 8740   3.517   4.879   0.520
 1912SOL     OW 8741   1.975   4.461   1.597
 1912SOL    HW1 8742   2.063   4.448   1.642
 1912SOL    HW2 8743   1.962   4.558   1.575
 1913SOL     OW 8744   3.155   4.952   1.423
 1913SOL    HW1 8745   3.192   4.879   1.365
 1913SOL    HW2 8746   3.207   4.957   1.508
 1914SOL     OW 8747   2.671   3.728   0.502
 1914SOL    HW1 8748   2.711   3.819   0.493
 1914SOL    HW2 8749   2.571   3.736   0.508
 1915SOL     OW 8750   2.059   4.700   1.264
 1915SOL    HW1 8751   2.148   4.655   1.250
 1915SOL    HW2 8752   1.986   4.635   1.245
 1916SOL     OW 8753   3.387   4.723   0.190
 1916SOL    HW1 8754   3.324   4.647   0.203
 1916SOL    HW2 8755   3.435   4.741   0.276
 1917SOL     OW 8756   2.179   3.975   1.801
 1917SOL    HW1 8757   2.250   4.046   1.807
 1917SOL    HW2 8758   2.091   4.014   1.829
 1918SOL     OW 8759   2.460   4.453   0.270
 1918SOL    HW1 8760   2.484   4.522   0.202
 1918SOL    HW2 8761   2.382   4.486   0.324
 1919SOL     OW 8762   3.143   4.069   0.944
 1919SOL    HW1 8763   3.057   4.019   0.931
 1919SOL    HW2 8764   3.205   4.015   1.000
 1920SOL     OW 8765   2.669   4.329   1.465
 1920SOL    HW1 8766   2.622   4.326   1.554
 1920SOL    HW2 8767   2.618   4.274   1.399
 1921SOL     OW 8768   3.256   4.193   1.674
 1921SOL    HW1 8769   3.236   4.236   1.762
 1921SOL    HW2 8770   3.334   4.131   1.683
 1922SOL     OW 8771   2.835   4.614   1.572
 1922SOL    HW1 8772   2.881   4.530   1.543
 1922SOL    HW2 8773   2.779   4.648   1.497
 1923SOL     OW 8774   2.853   4.134   1.242
 1923SOL    HW1 8775   2.776   4.168   1.296
 1923SOL    HW2 8776   2.819   4.083   1.163
 1924SOL     OW 8777   2.903   4.425   0.429
 1924SOL    HW1 8778   2.929   4.421   0.525
 1924SOL    HW2 8779   2.818   4.374   0.415
 1925SOL     OW 8780   1.938   4.535   0.789
 1925SOL    HW1 8781   2.037   4.523   0.798
 1925SOL    HW2 8782   1.914   4.630   0.810
 1926SOL     OW 8783   2.727   4.072   0.195
 1926SOL    HW1 8784   2.786   4.135   0.146
 1926SOL    HW2 8785   2.746   3.978   0.166
 1927SOL     OW 8786   3.581   4.309   1.831
 1927SOL    HW1 8787   3.555   4.398   1.795
 1927SOL    HW2 8788   3.579   4.241   1.758
 1928SOL     OW 8789   3.224   4.868   0.545
 1928SOL    HW1 8790   3.307   4.839   0.497
 1928SOL    HW2 8791   3.175   4.935   0.489
 1929SOL     OW 8792   2.412   3.920   0.885
 1929SOL    HW1 8793   2.407   3.915   0.985
 1929SOL    HW2 8794   2.414   4.016   0.856
 1930SOL     OW 8795   3.657   4.790   0.873
 1930SOL    HW1 8796   3.595   4.775   0.797
 1930SOL    HW2 8797   3.605   4.801   0.958
 1931SOL     OW 8798   2.183   4.667   0.242
 1931SOL    HW1 8799   2.265   4.706   0.200
 1931SOL    HW2 8800   2.156   4.585   0.193
 1932SOL     OW 8801   3.320   4.459   0.728
 1932SOL    HW1 8802   3.315   4.394   0.803
 1932SOL    HW2 8803   3.400   4.518   0.741
 1933SOL     OW 8804   3.262   3.831   0.426
 1933SOL    HW1 8805   3.238   3.794   0.336
 1933SOL    HW2 8806   3.361   3.847   0.430
 1934SOL     OW 8807   2.244   4.424   0.480
 1934SOL    HW1 8808   2.289   4.334   0.477
 1934SOL    HW2 8809   2.150   4.413   0.513
 1935SOL     OW 8810   2.476   3.846   0.117
 1935SOL    HW1 8811   2.574   3.824   0.124
 1935SOL    HW2 8812   2.445   3.829   0.024
 1936SOL     OW 8813   3.213   4.314   1.433
 1936SOL    HW1 8814   3.241   4.271   1.518
 1936SOL    HW2 8815   3.238   4.410   1.434
 1937SOL     OW 8816   2.784   4.227   0.899
 1937SOL    HW1 8817   2.759   4.218   0.803
 1937SOL    HW2 8818   2.832   4.145   0.930
 1938SOL     OW 8819   2.401   3.788   0.512
 1938SOL    HW1 8820   2.320   3.789   0.570
 1938SOL    HW2 8821   2.404   3.871   0.457
 1939SOL     OW 8822   2.159   3.759   0.171
 1939SOL    HW1 8823   2.208   3.843   0.150
 1939SOL    HW2 8824   2.221   3.694   0.216
 1940SOL     OW 8825   2.797   3.960   0.480
 1940SOL    HW1 8826   2.749   4.001   0.402
 1940SOL    HW2 8827   2.896   3.958   0.461
 1941SOL     OW 8828   2.321   4.876   0.741
 1941SOL    HW1 8829   2.250   4.849   0.806
 1941SOL    HW2 8830   2.295   4.848   0.648
 1942SOL     OW 8831   2.894   4.273   0.016
 1942SOL    HW1 8832   2.853   4.355  -0.023
 1942SOL    HW2 8833   2.958   4.299   0.089
 1943SOL     OW 8834   1.940   4.280   1.386
 1943SOL    HW1 8835   2.032   4.279   1.345
 1943SOL    HW2 8836   1.934   4.354   1.453
 1944SOL     OW 8837   2.423   3.946   1.147
 1944SOL    HW1 8838   2.461   3.862   1.184
 1944SOL    HW2 8839   2.335   3.965   1.191
 1945SOL     OW 8840   2.728   4.178   0.642
 1945SOL    HW1 8841   2.696   4.250   0.580
 1945SOL    HW2 8842   2.752   4.097   0.589
 1946SOL     OW 8843   2.879   3.763   0.753
 1946SOL    HW1 8844   2.807   3.768   0.684
 1946SOL    HW2 8845   2.855   3.694   0.822
 1947SOL     OW 8846   3.291   4.897   0.867
 1947SOL    HW1 8847   3.236   4.813   0.860
 1947SOL    HW2 8848   3.317   4.926   0.775
 1948SOL     OW 8849   3.328   4.314   0.992
 1948SOL    HW1 8850   3.298   4.219   0.999
 1948SOL    HW2 8851   3.401   4.330   1.058
 1949SOL     OW 8852   3.719   4.557   0.377
 1949SOL    HW1 8853   3.761   4.493   0.441
 1949SOL    HW2 8854   3.681   4.506   0.299
 1950SOL     OW 8855   3.252   4.299   0.078
 1950SOL    HW1 8856   3.198   4.278   0.159
 1950SOL    HW2 8857   3.343   4.258   0.087
 1951SOL     OW 8858   2.389   3.980   0.328
 1951SOL    HW1 8859   2.416   3.921   0.253
 1951SOL    HW2 8860   2.389   4.075   0.297
 1952SOL     OW 8861   3.616   4.947   1.588
 1952SOL    HW1 8862   3.707   4.908   1.575
 1952SOL    HW2 8863   3.624   5.043   1.612
 1953SOL     OW 8864   3.500   4.823   1.079
 1953SOL    HW1 8865   3.505   4.904   1.138
 1953SOL    HW2 8866   3.414   4.825   1.028
 1954SOL     OW 8867   2.842   4.840   1.719
 1954SOL    HW1 8868   2.743   4.846   1.729
 1954SOL    HW2 8869   2.865   4.760   1.663
 1955SOL     OW 8870   2.567   4.774   0.368
 1955SOL    HW1 8871   2.553   4.781   0.467
 1955SOL    HW2 8872   2.651   4.723   0.350
 1956SOL     OW 8873   2.272   4.537   1.251
 1956SOL    HW1 8874   2.358   4.549   1.301
 1956SOL    HW2 8875   2.230   4.450   1.278
 1957SOL     OW 8876   3.136   4.110   1.262
 1957SOL    HW1 8877   3.157   4.184   1.326
 1957SOL    HW2 8878   3.047   4.127   1.219
 1958SOL     OW 8879   2.229   4.824   0.501
 1958SOL    HW1 8880   2.222   4.907   0.445
 1958SOL    HW2 8881   2.233   4.744   0.441
 1959SOL     OW 8882   2.428   4.261   0.865
 1959SOL    HW1 8883   2.440   4.327   0.791
 1959SOL    HW2 8884   2.474   4.295   0.948
 1960SOL     OW 8885   3.444   4.363   0.472
 1960SOL    HW1 8886   3.413   4.424   0.545
 1960SOL    HW2 8887   3.494   4.415   0.403
 1961SOL     OW 8888   2.264   4.475   1.598
 1961SOL    HW1 8889   2.332   4.530   1.551
 1961SOL    HW2 8890   2.304   4.387   1.625
 1962SOL     OW 8891   3.449   4.503   1.670
 1962SOL    HW1 8892   3.357   4.541   1.665
 1962SOL    HW2 8893   3.509   4.550   1.605
 1963SOL     OW 8894   2.435   4.594   1.029
 1963SOL    HW1 8895   2.479   4.683   1.020
 1963SOL    HW2 8896   2.372   4.594   1.106
 1964SOL     OW 8897   3.222   4.586   1.045
 1964SOL    HW1 8898   3.147   4.586   0.979
 1964SOL    HW2 8899   3.259   4.494   1.054
 1965SOL     OW 8900   3.071   4.249   0.275
 1965SOL    HW1 8901   3.084   4.165   0.329
 1965SOL    HW2 8902   3.042   4.323   0.335
 1966SOL     OW 8903   2.169   3.937   1.231
 1966SOL    HW1 8904   2.146   3.974   1.321
 1966SOL    HW2 8905   2.139   3.842   1.225
 1967SOL     OW 8906   2.594   4.358   1.064
 1967SOL    HW1 8907   2.653   4.332   0.988
 1967SOL    HW2 8908   2.566   4.454   1.053
 1968SOL     OW 8909   3.590   4.659   1.854
 1968SOL    HW1 8910   3.544   4.652   1.765
 1968SOL    HW2 8911   3.528   4.703   1.920
 1969SOL     OW 8912   2.169   3.787   0.618
 1969SOL    HW1 8913   2.158   3.881   0.651
 1969SOL    HW2 8914   2.164   3.724   0.695
 1970SOL     OW 8915   3.484   4.091   0.374
 1970SOL    HW1 8916   3.486   4.015   0.438
 1970SOL    HW2 8917   3.436   4.168   0.414
 1971SOL     OW 8918   2.885   4.490   0.966
 1971SOL    HW1 8919   2.900   4.511   1.062
 1971SOL    HW2 8920   2.855   4.395   0.957
 1972SOL     OW 8921   2.212   4.622   1.804
 1972SOL    HW1 8922   2.288   4.666   1.852
 1972SOL    HW2 8923   2.247   4.575   1.722
 1973SOL     OW 8924   3.402   3.998   0.125
 1973SOL    HW1 8925   3.341   3.923   0.148
 1973SOL    HW2 8926   3.424   4.050   0.208
 1974SOL     OW 8927   3.165   4.562   0.042
 1974SOL    HW1 8928   3.199   4.469   0.057
 1974SOL    HW2 8929   3.183   4.589  -0.053
 1975SOL     OW 8930   2.181   4.534   0.949
 1975SOL    HW1 8931   2.274   4.570   0.954
 1975SOL    HW2 8932   2.175   4.449   1.001
 1976SOL     OW 8933   2.201   4.233   1.006
 1976SOL    HW1 8934   2.149   4.150   0.989
 1976SOL    HW2 8935   2.278   4.238   0.942
 1977SOL     OW 8936   3.022   3.931   1.477
 1977SOL    HW1 8937   3.022   3.995   1.554
 1977SOL    HW2 8938   3.050   3.979   1.394
 1978SOL     OW 8939   1.870   5.050   0.200
 1978SOL    HW1 8940   1.777   5.071   0.169
 1978SOL    HW2 8941   1.880   4.951   0.213
 1979SOL     OW 8942   2.864   4.520   1.238
 1979SOL    HW1 8943   2.905   4.488   1.324
 1979SOL    HW2 8944   2.768   4.493   1.235
 1980SOL     OW 8945   1.902   4.268   1.114
 1980SOL    HW1 8946   1.987   4.235   1.073
 1980SOL    HW2 8947   1.915   4.283   1.212
 1981SOL     OW 8948   2.051   4.244   1.722
 1981SOL    HW1 8949   2.110   4.204   1.652
 1981SOL    HW2 8950   1.993   4.315   1.681
 1982SOL     OW 8951   3.231   4.674   1.660
 1982SOL    HW1 8952   3.270   4.763   1.680
 1982SOL    HW2 8953   3.241   4.654   1.563
 1983SOL     OW 8954   2.677   4.296   0.325
 1983SOL    HW1 8955   2.684   4.207   0.279
 1983SOL    HW2 8956   2.583   4.330   0.317
 1984SOL     OW 8957   3.519   4.328   1.206
 1984SOL    HW1 8958   3.481   4.259   1.268
 1984SOL    HW2 8959   3.601   4.292   1.162
 1985SOL     OW 8960   2.533   4.188   1.269
 1985SOL    HW1 8961   2.499   4.099   1.239
 1985SOL    HW2 8962   2.559   4.242   1.189
 1986SOL     OW 8963   2.335   4.224   0.191
 1986SOL    HW1 8964   2.396   4.304   0.195
 1986SOL    HW2 8965   2.240   4.255   0.198
 1987SOL     OW 8966   2.021   4.861   1.466
 1987SOL    HW1 8967   2.043   4.800   1.542
 1987SOL    HW2 8968   2.031   4.812   1.380
 1988SOL     OW 8969   3.209   4.783   1.234
 1988SOL    HW1 8970   3.233   4.720   1.160
 1988SOL    HW2 8971   3.119   4.823   1.216
 1989SOL     OW 8972   3.164   4.579   0.309
 1989SOL    HW1 8973   3.078   4.548   0.351
 1989SOL    HW2 8974   3.160   4.565   0.210
 1990SOL     OW 8975   1.945   4.982   1.022
 1990SOL    HW1 8976   1.940   4.981   1.122
 1990SOL    HW2 8977   1.862   4.941   0.984
 1991SOL     OW 8978   2.765   3.810   0.133
 1991SOL    HW1 8979   2.816   3.811   0.047
 1991SOL    HW2 8980   2.821   3.768   0.204
 1992SOL     OW 8981   3.588   3.859   0.523
 1992SOL    HW1 8982   3.661   3.842   0.456
 1992SOL    HW2 8983   3.557   3.772   0.561
 1993SOL     OW 8984   3.142   4.651   0.672
 1993SOL    HW1 8985   3.202   4.570   0.674
 1993SOL    HW2 8986   3.182   4.720   0.612
 1994SOL     OW 8987   3.703   3.899   0.963
 1994SOL    HW1 8988   3.742   3.814   0.927
 1994SOL    HW2 8989   3.605   3.901   0.944
 1995SOL     OW 8990   2.125   4.050   0.720
 1995SOL    HW1 8991   2.046   4.101   0.686
 1995SOL    HW2 8992   2.116   4.035   0.818
 1996SOL     OW 8993   2.684   4.726   1.372
 1996SOL    HW1 8994   2.724   4.725   1.280
 1996SOL    HW2 8995   2.694   4.818   1.412
 1997SOL     OW 8996   2.778   4.634   0.291
 1997SOL    HW1 8997   2.841   4.672   0.223
 1997SOL    HW2 8998   2.818   4.551   0.330
 1998SOL     OW 8999   2.234   5.012   1.490
 1998SOL    HW1 9000   2.221   5.105   1.456
 1998SOL    HW2 9001   2.150   4.960   1.477
 1999SOL     OW 9002   3.476   5.016   1.289
 1999SOL    HW1 9003   3.536   5.019   1.369
 1999SOL    HW2 9004   3.401   5.080   1.302
 2000SOL     OW 9005   2.901   4.822   0.696
 2000SOL    HW1 9006   2.831   4.775   0.750
 2000SOL    HW2 9007   2.960   4.754   0.653
 2001SOL     OW 9008   2.876   3.960   0.971
 2001SOL    HW1 9009   2.868   3.924   0.878
 2001SOL    HW2 9010   2.874   3.884   1.036
 2002SOL     OW 9011   3.571   4.109   1.381
 2002SOL    HW1 9012   3.644   4.178   1.385
 2002SOL    HW2 9013   3.599   4.034   1.322
 2003SOL     OW 9014   1.967   4.737   1.726
 2003SOL    HW1 9015   1.890   4.704   1.780
 2003SOL    HW2 9016   2.052   4.707   1.768
 2004SOL     OW 9017   3.302   4.580   1.398
 2004SOL    HW1 9018   3.245   4.632   1.335
 2004SOL    HW2 9019   3.398   4.592   1.374
 2005SOL     OW 9020   1.934   3.890   0.318
 2005SOL    HW1 9021   1.917   3.973   0.264
 2005SOL    HW2 9022   2.024   3.853   0.296
 2006SOL     OW 9023   2.475   4.566   1.431
 2006SOL    HW1 9024   2.531   4.647   1.414
 2006SOL    HW2 9025   2.534   4.486   1.434
 2007SOL     OW 9026   3.312   4.944   1.633
 2007SOL    HW1 9027   3.303   4.934   1.732
 2007SOL    HW2 9028   3.408   4.937   1.607
 2008SOL     OW 9029   3.536   4.607   1.254
 2008SOL    HW1 9030   3.509   4.518   1.217
 2008SOL    HW2 9031   3.537   4.675   1.181
 2009SOL     OW 9032   3.087   4.049   0.449
 2009SOL    HW1 9033   3.152   3.975   0.438
 2009SOL    HW2 9034   3.107   4.099   0.533
 2010SOL     OW 9035   2.456   4.469   0.652
 2010SOL    HW1 9036   2.506   4.554   0.633
 2010SOL    HW2 9037   2.368   4.471   0.604
 2011SOL     OW 9038   3.639   4.066   1.642
 2011SOL    HW1 9039   3.622   4.097   1.548
 2011SOL    HW2 9040   3.555   4.029   1.680
 2012SOL     OW 9041   3.592   4.658   1.517
 2012SOL    HW1 9042   3.630   4.749   1.532
 2012SOL    HW2 9043   3.584   4.641   1.418
 2013SOL     OW 9044   2.721   4.680   0.861
 2013SOL    HW1 9045   2.775   4.611   0.909
 2013SOL    HW2 9046   2.689   4.749   0.927
 2014SOL     OW 9047   2.945   4.708   0.087
 2014SOL    HW1 9048   2.922   4.761   0.005
 2014SOL    HW2 9049   3.026   4.652   0.068
 2015SOL     OW 9050   1.941   4.964   0.653
 2015SOL    HW1 9051   1.940   4.917   0.741
 2015SOL    HW2 9052   2.023   4.936   0.602
 2016SOL     OW 9053   3.686   3.916   1.227
 2016SOL    HW1 9054   3.682   3.826   1.271
 2016SOL    HW2 9055   3.689   3.905   1.128
 2017SOL     OW 9056   2.290   4.148   0.520
 2017SOL    HW1 9057   2.320   4.076   0.458
 2017SOL    HW2 9058   2.251   4.108   0.603
 2018SOL     OW 9059   2.179   4.271   1.280
 2018SOL    HW1 9060   2.217   4.212   1.352
 2018SOL    HW2 9061   2.219   4.245   1.192
 2019SOL     OW 9062   3.286   3.938   1.112
 2019SOL    HW1 9063   3.338   3.873   1.167
 2019SOL    HW2 9064   3.237   4.001   1.173
 2020SOL     OW 9065   2.863   3.758   1.154
 2020SOL    HW1 9066   2.800   3.686   1.123
 2020SOL    HW2 9067   2.956   3.722   1.154
 2021SOL     OW 9068   2.632   5.054   0.301
 2021SOL    HW1 9069   2.586   4.967   0.318
 2021SOL    HW2 9070   2.723   5.051   0.342
 2022SOL     OW 9071   3.214   3.776   0.168
 2022SOL    HW1 9072   3.249   3.735   0.084
 2022SOL    HW2 9073   3.124   3.738   0.188
 2023SOL     OW 9074   3.162   4.177   0.691
 2023SOL    HW1 9075   3.103   4.257   0.695
 2023SOL    HW2 9076   3.177   4.142   0.784
 2024SOL     OW 9077   3.455   3.945   0.882
 2024SOL    HW1 9078   3.371   3.944   0.936
 2024SOL    HW2 9079   3.457   4.028   0.826
 2025SOL     OW 9080   2.092   4.352   1.975
 2025SOL    HW1 9081   1.999   4.350   2.012
 2025SOL    HW2 9082   2.093   4.313   1.883
 2026SOL     OW 9083   2.087   3.999   2.858
 2026SOL    HW1 9084   2.122   3.982   2.950
 2026SOL    HW2 9085   1.999   3.954   2.846
 2027SOL     OW 9086   2.997   4.427   2.579
 2027SOL    HW1 9087   3.054   4.505   2.554
 2027SOL    HW2 9088   2.937   4.453   2.655
 2028SOL     OW 9089   3.617   4.331   2.093
 2028SOL    HW1 9090   3.605   4.318   1.994
 2028SOL    HW2 9091   3.587   4.250   2.142
 2029SOL     OW 9092   2.630   4.868   2.885
 2029SOL    HW1 9093   2.552   4.885   2.945
 2029SOL    HW2 9094   2.664   4.955   2.849
 2030SOL     OW 9095   2.712   4.522   3.685
 2030SOL    HW1 9096   2.708   4.598   3.750
 2030SOL    HW2 9097   2.734   4.558   3.594
 2031SOL     OW 9098   2.547   4.736   2.527
 2031SOL    HW1 9099   2.616   4.720   2.597
 2031SOL    HW2 9100   2.474   4.793   2.565
 2032SOL     OW 9101   2.548   4.885   3.665
 2032SOL    HW1 9102   2.608   4.964   3.679
 2032SOL    HW2 9103   2.462   4.916   3.624
 2033SOL     OW 9104   2.300   4.116   3.361
 2033SOL    HW1 9105   2.382   4.060   3.370
 2033SOL    HW2 9106   2.219   4.058   3.365
 2034SOL     OW 9107   3.465   4.171   2.599
 2034SOL    HW1 9108   3.391   4.217   2.549
 2034SOL    HW2 9109   3.516   4.239   2.652
 2035SOL     OW 9110   2.102   4.815   2.748
 2035SOL    HW1 9111   2.116   4.731   2.800
 2035SOL    HW2 9112   2.047   4.879   2.803
 2036SOL     OW 9113   2.468   4.688   1.985
 2036SOL    HW1 9114   2.475   4.772   1.931
 2036SOL    HW2 9115   2.514   4.701   2.073
 2037SOL     OW 9116   1.984   4.367   2.425
 2037SOL    HW1 9117   1.939   4.279   2.442
 2037SOL    HW2 9118   1.983   4.421   2.509
 2038SOL     OW 9119   3.551   4.646   2.474
 2038SOL    HW1 9120   3.646   4.617   2.482
 2038SOL    HW2 9121   3.543   4.711   2.399
 2039SOL     OW 9122   3.503   4.832   2.294
 2039SOL    HW1 9123   3.589   4.834   2.242
 2039SOL    HW2 9124   3.517   4.879   2.382
 2040SOL     OW 9125   1.975   4.461   3.459
 2040SOL    HW1 9126   2.063   4.448   3.504
 2040SOL    HW2 9127   1.962   4.558   3.437
 2041SOL     OW 9128   3.155   4.952   3.285
 2041SOL    HW1 9129   3.192   4.879   3.227
 2041SOL    HW2 9130   3.207   4.957   3.370
 2042SOL     OW 9131   2.059   4.700   3.126
 2042SOL    HW1 9132   2.148   4.655   3.112
 2042SOL    HW2 9133   1.986   4.635   3.107
 2043SOL     OW 9134   3.387   4.723   2.052
 2043SOL    HW1 9135   3.324   4.647   2.065
 2043SOL    HW2 9136   3.435   4.741   2.138
 2044SOL     OW 9137   2.179   3.975   3.663
 2044SOL    HW1 9138   2.250   4.046   3.669
 2044SOL    HW2 9139   2.091   4.014   3.691
 2045SOL     OW 9140   2.460   4.453   2.132
 2045SOL    HW1 9141   2.484   4.522   2.064
 2045SOL    HW2 9142   2.382   4.486   2.186
 2046SOL     OW 9143   3.143   4.069   2.806
 2046SOL    HW1 9144   3.057   4.019   2.793
 2046SOL    HW2 9145   3.205   4.015   2.862
 2047SOL     OW 9146   2.669   4.329   3.327
 2047SOL    HW1 9147   2.622   4.326   3.416
 2047SOL    HW2 9148   2.618   4.274   3.261
 2048SOL     OW 9149   3.256   4.193   3.536
 2048SOL    HW1 9150   3.236   4.236   3.624
 2048SOL    HW2 9151   3.334   4.131   3.545
 2049SOL     OW 9152   2.835   4.614   3.434
 2049SOL    HW1 9153   2.881   4.530   3.405
 2049SOL    HW2 9154   2.779   4.648   3.359
 2050SOL     OW 9155   2.853   4.134   3.104
 2050SOL    HW1 9156   2.776   4.168   3.158
 2050SOL    HW2 9157   2.819   4.083   3.025
 2051SOL     OW 9158   2.903   4.425   2.291
 2051SOL    HW1 9159   2.929   4.421   2.387
 2051SOL    HW2 9160   2.818   4.374   2.277
 2052SOL     OW 9161   1.938   4.535   2.651
 2052SOL    HW1 9162   2.037   4.523   2.660
 2052SOL    HW2 9163   1.914   4.630   2.672
 2053SOL     OW 9164   3.581   4.309   3.693
 2053SOL    HW1 9165   3.555   4.398   3.657
 2053SOL    HW2 9166   3.579   4.241   3.620
 2054SOL     OW 9167   3.224   4.868   2.407
 2054SOL    HW1 9168   3.307   4.839   2.359
 2054SOL    HW2 9169   3.175   4.935   2.351
 2055SOL     OW 9170   3.657   4.790   2.735
 2055SOL    HW1 9171   3.595   4.775   2.659
 2055SOL    HW2 9172   3.605   4.801   2.820
 2056SOL     OW 9173   2.183   4.667   2.104
 2056SOL    HW1 9174   2.265   4.706   2.062
 2056SOL    HW2 9175   2.156   4.585   2.055
 2057SOL     OW 9176   3.320   4.459   2.590
 2057SOL    HW1 9177   3.315   4.394   2.665
 2057SOL    HW2 9178   3.400   4.518   2.603
 2058SOL     OW 9179   2.064   4.009   3.360
 2058SOL    HW1 9180   1.984   4.069   3.347
 2058SOL    HW2 9181   2.054   3.960   3.446
 2059SOL     OW 9182   2.244   4.424   2.342
 2059SOL    HW1 9183   2.289   4.334   2.339
 2059SOL    HW2 9184   2.150   4.413   2.375
 2060SOL     OW 9185   3.409   3.946   3.591
 2060SOL    HW1 9186   3.404   3.983   3.683
 2060SOL    HW2 9187   3.337   3.877   3.579
 2061SOL     OW 9188   3.213   4.314   3.295
 2061SOL    HW1 9189   3.241   4.271   3.380
 2061SOL    HW2 9190   3.238   4.410   3.296
 2062SOL     OW 9191   2.784   4.227   2.761
 2062SOL    HW1 9192   2.759   4.218   2.665
 2062SOL    HW2 9193   2.832   4.145   2.792
 2063SOL     OW 9194   2.797   3.960   2.342
 2063SOL    HW1 9195   2.749   4.001   2.264
 2063SOL    HW2 9196   2.896   3.958   2.323
 2064SOL     OW 9197   2.938   4.407   3.326
 2064SOL    HW1 9198   2.858   4.346   3.329
 2064SOL    HW2 9199   3.019   4.354   3.302
 2065SOL     OW 9200   2.321   4.876   2.603
 2065SOL    HW1 9201   2.250   4.849   2.668
 2065SOL    HW2 9202   2.295   4.848   2.510
 2066SOL     OW 9203   1.940   4.280   3.248
 2066SOL    HW1 9204   2.032   4.279   3.207
 2066SOL    HW2 9205   1.934   4.354   3.315
 2067SOL     OW 9206   2.728   4.178   2.504
 2067SOL    HW1 9207   2.696   4.250   2.442
 2067SOL    HW2 9208   2.752   4.097   2.451
 2068SOL     OW 9209   3.291   4.897   2.729
 2068SOL    HW1 9210   3.236   4.813   2.722
 2068SOL    HW2 9211   3.317   4.926   2.637
 2069SOL     OW 9212   3.328   4.314   2.854
 2069SOL    HW1 9213   3.298   4.219   2.861
 2069SOL    HW2 9214   3.401   4.330   2.920
 2070SOL     OW 9215   3.719   4.557   2.239
 2070SOL    HW1 9216   3.761   4.493   2.303
 2070SOL    HW2 9217   3.681   4.506   2.161
 2071SOL     OW 9218   3.252   4.299   1.940
 2071SOL    HW1 9219   3.198   4.278   2.021
 2071SOL    HW2 9220   3.343   4.258   1.949
 2072SOL     OW 9221   3.616   4.947   3.450
 2072SOL    HW1 9222   3.707   4.908   3.437
 2072SOL    HW2 9223   3.624   5.043   3.474
 2073SOL     OW 9224   3.500   4.823   2.941
 2073SOL    HW1 9225   3.505   4.904   3.000
 2073SOL    HW2 9226   3.414   4.825   2.890
 2074SOL     OW 9227   2.842   4.840   3.581
 2074SOL    HW1 9228   2.743   4.846   3.591
 2074SOL    HW2 9229   2.865   4.760   3.525
 2075SOL     OW 9230   2.567   4.774   2.230
 2075SOL    HW1 9231   2.553   4.781   2.329
 2075SOL    HW2 9232   2.651   4.723   2.212
 2076SOL     OW 9233   2.272   4.537   3.113
 2076SOL    HW1 9234   2.358   4.549   3.163
 2076SOL    HW2 9235   2.230   4.450   3.140
 2077SOL     OW 9236   3.136   4.110   3.124
 2077SOL    HW1 9237   3.157   4.184   3.188
 2077SOL    HW2 9238   3.047   4.127   3.081
 2078SOL     OW 9239   2.229   4.824   2.363
 2078SOL    HW1 9240   2.222   4.907   2.307
 2078SOL    HW2 9241   2.233   4.744   2.303
 2079SOL     OW 9242   2.428   4.261   2.727
 2079SOL    HW1 9243   2.440   4.327   2.653
 2079SOL    HW2 9244   2.474   4.295   2.810
 2080SOL     OW 9245   3.444   4.363   2.334
 2080SOL    HW1 9246   3.413   4.424   2.407
 2080SOL    HW2 9247   3.494   4.415   2.265
 2081SOL     OW 9248   2.264   4.475   3.460
 2081SOL    HW1 9249   2.332   4.530   3.413
 2081SOL    HW2 9250   2.304   4.387   3.487
 2082SOL     OW 9251   3.449   4.503   3.532
 2082SOL    HW1 9252   3.357   4.541   3.527
 2082SOL    HW2 9253   3.509   4.550   3.467
 2083SOL     OW 9254   2.875   3.829   3.632
 2083SOL    HW1 9255   2.881   3.914   3.580
 2083SOL    HW2 9256   2.907   3.753   3.575
 2084SOL     OW 9257   2.435   4.594   2.891
 2084SOL    HW1 9258   2.479   4.683   2.882
 2084SOL    HW2 9259   2.372   4.594   2.968
 2085SOL     OW 9260   3.222   4.586   2.907
 2085SOL    HW1 9261   3.147   4.586   2.841
 2085SOL    HW2 9262   3.259   4.494   2.916
 2086SOL     OW 9263   3.071   4.249   2.137
 2086SOL    HW1 9264   3.084   4.165   2.191
 2086SOL    HW2 9265   3.042   4.323   2.197
 2087SOL     OW 9266   2.594   4.358   2.926
 2087SOL    HW1 9267   2.653   4.332   2.850
 2087SOL    HW2 9268   2.566   4.454   2.915
 2088SOL     OW 9269   3.590   4.659   3.716
 2088SOL    HW1 9270   3.544   4.652   3.627
 2088SOL    HW2 9271   3.528   4.703   3.782
 2089SOL     OW 9272   3.484   4.091   2.236
 2089SOL    HW1 9273   3.486   4.015   2.300
 2089SOL    HW2 9274   3.436   4.168   2.276
 2090SOL     OW 9275   2.885   4.490   2.828
 2090SOL    HW1 9276   2.900   4.511   2.924
 2090SOL    HW2 9277   2.855   4.395   2.819
 2091SOL     OW 9278   2.212   4.622   3.666
 2091SOL    HW1 9279   2.288   4.666   3.714
 2091SOL    HW2 9280   2.247   4.575   3.584
 2092SOL     OW 9281   3.165   4.562   1.904
 2092SOL    HW1 9282   3.199   4.469   1.919
 2092SOL    HW2 9283   3.183   4.589   1.809
 2093SOL     OW 9284   2.181   4.534   2.811
 2093SOL    HW1 9285   2.274   4.570   2.816
 2093SOL    HW2 9286   2.175   4.449   2.863
 2094SOL     OW 9287   2.201   4.233   2.868
 2094SOL    HW1 9288   2.149   4.150   2.851
 2094SOL    HW2 9289   2.278   4.238   2.804
 2095SOL     OW 9290   3.000   4.104   3.540
 2095SOL    HW1 9291   2.955   4.167   3.604
 2095SOL    HW2 9292   3.093   4.135   3.523
 2096SOL     OW 9293   3.022   3.931   3.339
 2096SOL    HW1 9294   3.022   3.995   3.416
 2096SOL    HW2 9295   3.050   3.979   3.256
 2097SOL     OW 9296   1.870   5.050   2.062
 2097SOL    HW1 9297   1.777   5.071   2.031
 2097SOL    HW2 9298   1.880   4.951   2.075
 2098SOL     OW 9299   2.864   4.520   3.100
 2098SOL    HW1 9300   2.905   4.488   3.186
 2098SOL    HW2 9301   2.768   4.493   3.097
 2099SOL     OW 9302   1.902   4.268   2.976
 2099SOL    HW1 9303   1.987   4.235   2.935
 2099SOL    HW2 9304   1.915   4.283   3.074
 2100SOL     OW 9305   2.051   4.244   3.584
 2100SOL    HW1 9306   2.110   4.204   3.514
 2100SOL    HW2 9307   1.993   4.315   3.543
 2101SOL     OW 9308   3.231   4.674   3.522
 2101SOL    HW1 9309   3.270   4.763   3.542
 2101SOL    HW2 9310   3.241   4.654   3.425
 2102SOL     OW 9311   2.677   4.296   2.187
 2102SOL    HW1 9312   2.684   4.207   2.141
 2102SOL    HW2 9313   2.583   4.330   2.179
 2103SOL     OW 9314   3.519   4.328   3.068
 2103SOL    HW1 9315   3.481   4.259   3.130
 2103SOL    HW2 9316   3.601   4.292   3.024
 2104SOL     OW 9317   2.533   4.188   3.131
 2104SOL    HW1 9318   2.499   4.099   3.101
 2104SOL    HW2 9319   2.559   4.242   3.051
 2105SOL     OW 9320   2.335   4.224   2.053
 2105SOL    HW1 9321   2.396   4.304   2.057
 2105SOL    HW2 9322   2.240   4.255   2.060
 2106SOL     OW 9323   2.021   4.861   3.328
 2106SOL    HW1 9324   2.043   4.800   3.404
 2106SOL    HW2 9325   2.031   4.812   3.242
 2107SOL     OW 9326   3.209   4.783   3.096
 2107SOL    HW1 9327   3.233   4.720   3.022
 2107SOL    HW2 9328   3.119   4.823   3.078
 2108SOL     OW 9329   3.164   4.579   2.171
 2108SOL    HW1 9330   3.078   4.548   2.213
 2108SOL    HW2 9331   3.160   4.565   2.072
 2109SOL     OW 9332   1.945   4.982   2.884
 2109SOL    HW1 9333   1.940   4.981   2.984
 2109SOL    HW2 9334   1.862   4.941   2.846
 2110SOL     OW 9335   3.142   4.651   2.534
 2110SOL    HW1 9336   3.202   4.570   2.536
 2110SOL    HW2 9337   3.182   4.720   2.474
 2111SOL     OW 9338   2.125   4.050   2.582
 2111SOL    HW1 9339   2.046   4.101   2.548
 2111SOL    HW2 9340   2.116   4.035   2.680
 2112SOL     OW 9341   2.684   4.726   3.234
 2112SOL    HW1 9342   2.724   4.725   3.142
 2112SOL    HW2 9343   2.694   4.818   3.274
 2113SOL     OW 9344   2.778   4.634   2.153
 2113SOL    HW1 9345   2.841   4.672   2.085
 2113SOL    HW2 9346   2.818   4.551   2.192
 2114SOL     OW 9347   2.234   5.012   3.352
 2114SOL    HW1 9348   2.221   5.105   3.318
 2114SOL    HW2 9349   2.150   4.960   3.339
 2115SOL     OW 9350   3.476   5.016   3.151
 2115SOL    HW1 9351   3.536   5.019   3.231
 2115SOL    HW2 9352   3.401   5.080   3.164
 2116SOL     OW 9353   2.901   4.822   2.558
 2116SOL    HW1 9354   2.831   4.775   2.612
 2116SOL    HW2 9355   2.960   4.754   2.515
 2117SOL     OW 9356   2.876   3.960   2.833
 2117SOL    HW1 9357   2.868   3.924   2.740
 2117SOL    HW2 9358   2.874   3.884   2.898
 2118SOL     OW 9359   3.571   4.109   3.243
 2118SOL    HW1 9360   3.644   4.178   3.247
 2118SOL    HW2 9361   3.599   4.034   3.184
 2119SOL     OW 9362   1.967   4.737   3.588
 2119SOL    HW1 9363   1.890   4.704   3.642
 2119SOL    HW2 9364   2.052   4.707   3.630
 2120SOL     OW 9365   1.937   4.069   1.895
 2120SOL    HW1 9366   1.845   4.041   1.866
 2120SOL    HW2 9367   1.968   4.146   1.839
 2121SOL     OW 9368   3.302   4.580   3.260
 2121SOL    HW1 9369   3.245   4.632   3.197
 2121SOL    HW2 9370   3.398   4.592   3.236
 2122SOL     OW 9371   2.475   4.566   3.293
 2122SOL    HW1 9372   2.531   4.647   3.276
 2122SOL    HW2 9373   2.534   4.486   3.296
 2123SOL     OW 9374   2.578   4.289   3.570
 2123SOL    HW1 9375   2.597   4.354   3.644
 2123SOL    HW2 9376   2.638   4.209   3.579
 2124SOL     OW 9377   3.312   4.944   3.495
 2124SOL    HW1 9378   3.303   4.934   3.594
 2124SOL    HW2 9379   3.408   4.937   3.469
 2125SOL     OW 9380   3.536   4.607   3.116
 2125SOL    HW1 9381   3.509   4.518   3.079
 2125SOL    HW2 9382   3.537   4.675   3.043
 2126SOL     OW 9383   3.087   4.049   2.311
 2126SOL    HW1 9384   3.152   3.975   2.300
 2126SOL    HW2 9385   3.107   4.099   2.395
 2127SOL     OW 9386   2.456   4.469   2.514
 2127SOL    HW1 9387   2.506   4.554   2.495
 2127SOL    HW2 9388   2.368   4.471   2.466
 2128SOL     OW 9389   3.639   4.066   3.504
 2128SOL    HW1 9390   3.622   4.097   3.410
 2128SOL    HW2 9391   3.555   4.029   3.542
 2129SOL     OW 9392   3.592   4.658   3.379
 2129SOL    HW1 9393   3.630   4.749   3.394
 2129SOL    HW2 9394   3.584   4.641   3.280
 2130SOL     OW 9395   2.721   4.680   2.723
 2130SOL    HW1 9396   2.775   4.611   2.771
 2130SOL    HW2 9397   2.689   4.749   2.789
 2131SOL     OW 9398   2.945   4.708   1.949
 2131SOL    HW1 9399   2.922   4.761   1.867
 2131SOL    HW2 9400   3.026   4.652   1.930
 2132SOL     OW 9401   1.941   4.964   2.515
 2132SOL    HW1 9402   1.940   4.917   2.603
 2132SOL    HW2 9403   2.023   4.936   2.464
 2133SOL     OW 9404   3.686   3.916   3.089
 2133SOL    HW1 9405   3.682   3.826   3.133
 2133SOL    HW2 9406   3.689   3.905   2.990
 2134SOL     OW 9407   2.290   4.148   2.382
 2134SOL    HW1 9408   2.320   4.076   2.320
 2134SOL    HW2 9409   2.251   4.108   2.465
 2135SOL     OW 9410   2.179   4.271   3.142
 2135SOL    HW1 9411   2.217   4.212   3.214
 2135SOL    HW2 9412   2.219   4.245   3.054
 2136SOL     OW 9413   2.632   5.054   2.163
 2136SOL    HW1 9414   2.586   4.967   2.180
 2136SOL    HW2 9415   2.723   5.051   2.204
 2137SOL     OW 9416   3.162   4.177   2.553
 2137SOL    HW1 9417   3.103   4.257   2.557
 2137SOL    HW2 9418   3.177   4.142   2.646
 2138SOL     OW 9419   1.901   4.801   2.162
 2138SOL    HW1 9420   2.000   4.790   2.153
 2138SOL    HW2 9421   1.861   4.715   2.194
 2139SOL     OW 9422   2.092   4.352   3.837
 2139SOL    HW1 9423   1.999   4.350   3.874
 2139SOL    HW2 9424   2.093   4.313   3.745
 2140SOL     OW 9425   2.087   3.999   4.720
 2140SOL    HW1 9426   2.122   3.982   4.812
 2140SOL    HW2 9427   1.999   3.954   4.708
 2141SOL     OW 9428   1.881   4.092   4.371
 2141SOL    HW1 9429   1.799   4.135   4.410
 2141SOL    HW2 9430   1.853   4.019   4.308
 2142SOL     OW 9431   2.997   4.427   4.441
 2142SOL    HW1 9432   3.054   4.505   4.416
 2142SOL    HW2 9433   2.937   4.453   4.517
 2143SOL     OW 9434   3.617   4.331   3.955
 2143SOL    HW1 9435   3.605   4.318   3.856
 2143SOL    HW2 9436   3.587   4.250   4.004
 2144SOL     OW 9437   2.630   4.868   4.747
 2144SOL    HW1 9438   2.552   4.885   4.807
 2144SOL    HW2 9439   2.664   4.955   4.711
 2145SOL     OW 9440   2.547   4.736   4.389
 2145SOL    HW1 9441   2.616   4.720   4.459
 2145SOL    HW2 9442   2.474   4.793   4.427
 2146SOL     OW 9443   3.465   4.171   4.461
 2146SOL    HW1 9444   3.391   4.217   4.411
 2146SOL    HW2 9445   3.516   4.239   4.514
 2147SOL     OW 9446   2.102   4.815   4.610
 2147SOL    HW1 9447   2.116   4.731   4.662
 2147SOL    HW2 9448   2.047   4.879   4.665
 2148SOL     OW 9449   2.468   4.688   3.847
 2148SOL    HW1 9450   2.475   4.772   3.793
 2148SOL    HW2 9451   2.514   4.701   3.935
 2149SOL     OW 9452   1.984   4.367   4.287
 2149SOL    HW1 9453   1.939   4.279   4.304
 2149SOL    HW2 9454   1.983   4.421   4.371
 2150SOL     OW 9455   3.551   4.646   4.336
 2150SOL    HW1 9456   3.646   4.617   4.344
 2150SOL    HW2 9457   3.543   4.711   4.261
 2151SOL     OW 9458   3.503   4.832   4.156
 2151SOL    HW1 9459   3.589   4.834   4.104
 2151SOL    HW2 9460   3.517   4.879   4.244
 2152SOL     OW 9461   2.059   4.700   4.988
 2152SOL    HW1 9462   2.148   4.655   4.974
 2152SOL    HW2 9463   1.986   4.635   4.969
 2153SOL     OW 9464   3.387   4.723   3.914
 2153SOL    HW1 9465   3.324   4.647   3.927
 2153SOL    HW2 9466   3.435   4.741   4.000
 2154SOL     OW 9467   2.460   4.453   3.994
 2154SOL    HW1 9468   2.484   4.522   3.926
 2154SOL    HW2 9469   2.382   4.486   4.048
 2155SOL     OW 9470   3.143   4.069   4.668
 2155SOL    HW1 9471   3.057   4.019   4.655
 2155SOL    HW2 9472   3.205   4.015   4.724
 2156SOL     OW 9473   2.903   4.425   4.153
 2156SOL    HW1 9474   2.929   4.421   4.249
 2156SOL    HW2 9475   2.818   4.374   4.139
 2157SOL     OW 9476   1.938   4.535   4.513
 2157SOL    HW1 9477   2.037   4.523   4.522
 2157SOL    HW2 9478   1.914   4.630   4.534
 2158SOL     OW 9479   2.727   4.072   3.919
 2158SOL    HW1 9480   2.786   4.135   3.870
 2158SOL    HW2 9481   2.746   3.978   3.890
 2159SOL     OW 9482   3.224   4.868   4.269
 2159SOL    HW1 9483   3.307   4.839   4.221
 2159SOL    HW2 9484   3.175   4.935   4.213
 2160SOL     OW 9485   2.412   3.920   4.609
 2160SOL    HW1 9486   2.407   3.915   4.709
 2160SOL    HW2 9487   2.414   4.016   4.580
 2161SOL     OW 9488   3.657   4.790   4.597
 2161SOL    HW1 9489   3.595   4.775   4.521
 2161SOL    HW2 9490   3.605   4.801   4.682
 2162SOL     OW 9491   2.183   4.667   3.966
 2162SOL    HW1 9492   2.265   4.706   3.924
 2162SOL    HW2 9493   2.156   4.585   3.917
 2163SOL     OW 9494   3.320   4.459   4.452
 2163SOL    HW1 9495   3.315   4.394   4.527
 2163SOL    HW2 9496   3.400   4.518   4.465
 2164SOL     OW 9497   3.262   3.831   4.150
 2164SOL    HW1 9498   3.238   3.794   4.060
 2164SOL    HW2 9499   3.361   3.847   4.154
 2165SOL     OW 9500   2.244   4.424   4.204
 2165SOL    HW1 9501   2.289   4.334   4.201
 2165SOL    HW2 9502   2.150   4.413   4.237
 2166SOL     OW 9503   2.784   4.227   4.623
 2166SOL    HW1 9504   2.759   4.218   4.527
 2166SOL    HW2 9505   2.832   4.145   4.654
 2167SOL     OW 9506   2.401   3.788   4.236
 2167SOL    HW1 9507   2.320   3.789   4.294
 2167SOL    HW2 9508   2.404   3.871   4.181
 2168SOL     OW 9509   2.159   3.759   3.895
 2168SOL    HW1 9510   2.208   3.843   3.874
 2168SOL    HW2 9511   2.221   3.694   3.940
 2169SOL     OW 9512   2.797   3.960   4.204
 2169SOL    HW1 9513   2.749   4.001   4.126
 2169SOL    HW2 9514   2.896   3.958   4.185
 2170SOL     OW 9515   2.321   4.876   4.465
 2170SOL    HW1 9516   2.250   4.849   4.530
 2170SOL    HW2 9517   2.295   4.848   4.372
 2171SOL     OW 9518   2.894   4.273   3.740
 2171SOL    HW1 9519   2.853   4.355   3.701
 2171SOL    HW2 9520   2.958   4.299   3.813
 2172SOL     OW 9521   2.728   4.178   4.366
 2172SOL    HW1 9522   2.696   4.250   4.304
 2172SOL    HW2 9523   2.752   4.097   4.313
 2173SOL     OW 9524   2.879   3.763   4.477
 2173SOL    HW1 9525   2.807   3.768   4.408
 2173SOL    HW2 9526   2.855   3.694   4.546
 2174SOL     OW 9527   3.291   4.897   4.591
 2174SOL    HW1 9528   3.236   4.813   4.584
 2174SOL    HW2 9529   3.317   4.926   4.499
 2175SOL     OW 9530   3.328   4.314   4.716
 2175SOL    HW1 9531   3.298   4.219   4.723
 2175SOL    HW2 9532   3.401   4.330   4.782
 2176SOL     OW 9533   3.719   4.557   4.101
 2176SOL    HW1 9534   3.761   4.493   4.165
 2176SOL    HW2 9535   3.681   4.506   4.023
 2177SOL     OW 9536   3.252   4.299   3.802
 2177SOL    HW1 9537   3.198   4.278   3.883
 2177SOL    HW2 9538   3.343   4.258   3.811
 2178SOL     OW 9539   2.389   3.980   4.052
 2178SOL    HW1 9540   2.416   3.921   3.977
 2178SOL    HW2 9541   2.389   4.075   4.021
 2179SOL     OW 9542   3.500   4.823   4.803
 2179SOL    HW1 9543   3.505   4.904   4.862
 2179SOL    HW2 9544   3.414   4.825   4.752
 2180SOL     OW 9545   2.567   4.774   4.092
 2180SOL    HW1 9546   2.553   4.781   4.191
 2180SOL    HW2 9547   2.651   4.723   4.074
 2181SOL     OW 9548   2.272   4.537   4.975
 2181SOL    HW1 9549   2.358   4.549   5.025
 2181SOL    HW2 9550   2.230   4.450   5.002
 2182SOL     OW 9551   2.229   4.824   4.225
 2182SOL    HW1 9552   2.222   4.907   4.169
 2182SOL    HW2 9553   2.233   4.744   4.165
 2183SOL     OW 9554   2.428   4.261   4.589
 2183SOL    HW1 9555   2.440   4.327   4.515
 2183SOL    HW2 9556   2.474   4.295   4.672
 2184SOL     OW 9557   3.444   4.363   4.196
 2184SOL    HW1 9558   3.413   4.424   4.269
 2184SOL    HW2 9559   3.494   4.415   4.127
 2185SOL     OW 9560   2.435   4.594   4.753
 2185SOL    HW1 9561   2.479   4.683   4.744
 2185SOL    HW2 9562   2.372   4.594   4.830
 2186SOL     OW 9563   3.222   4.586   4.769
 2186SOL    HW1 9564   3.147   4.586   4.703
 2186SOL    HW2 9565   3.259   4.494   4.778
 2187SOL     OW 9566   3.071   4.249   3.999
 2187SOL    HW1 9567   3.084   4.165   4.053
 2187SOL    HW2 9568   3.042   4.323   4.059
 2188SOL     OW 9569   2.169   3.937   4.955
 2188SOL    HW1 9570   2.146   3.974   5.045
 2188SOL    HW2 9571   2.139   3.842   4.949
 2189SOL     OW 9572   2.594   4.358   4.788
 2189SOL    HW1 9573   2.653   4.332   4.712
 2189SOL    HW2 9574   2.566   4.454   4.777
 2190SOL     OW 9575   2.169   3.787   4.342
 2190SOL    HW1 9576   2.158   3.881   4.375
 2190SOL    HW2 9577   2.164   3.724   4.419
 2191SOL     OW 9578   3.484   4.091   4.098
 2191SOL    HW1 9579   3.486   4.015   4.162
 2191SOL    HW2 9580   3.436   4.168   4.138
 2192SOL     OW 9581   2.885   4.490   4.690
 2192SOL    HW1 9582   2.900   4.511   4.786
 2192SOL    HW2 9583   2.855   4.395   4.681
 2193SOL     OW 9584   3.402   3.998   3.849
 2193SOL    HW1 9585   3.341   3.923   3.872
 2193SOL    HW2 9586   3.424   4.050   3.932
 2194SOL     OW 9587   3.165   4.562   3.766
 2194SOL    HW1 9588   3.199   4.469   3.781
 2194SOL    HW2 9589   3.183   4.589   3.671
 2195SOL     OW 9590   2.181   4.534   4.673
 2195SOL    HW1 9591   2.274   4.570   4.678
 2195SOL    HW2 9592   2.175   4.449   4.725
 2196SOL     OW 9593   2.201   4.233   4.730
 2196SOL    HW1 9594   2.149   4.150   4.713
 2196SOL    HW2 9595   2.278   4.238   4.666
 2197SOL     OW 9596   3.022   3.931   5.201
 2197SOL    HW1 9597   3.022   3.995   5.278
 2197SOL    HW2 9598   3.050   3.979   5.118
 2198SOL     OW 9599   1.870   5.050   3.924
 2198SOL    HW1 9600   1.777   5.071   3.893
 2198SOL    HW2 9601   1.880   4.951   3.937
 2199SOL     OW 9602   2.864   4.520   4.962
 2199SOL    HW1 9603   2.905   4.488   5.048
 2199SOL    HW2 9604   2.768   4.493   4.959
 2200SOL     OW 9605   1.902   4.268   4.838
 2200SOL    HW1 9606   1.987   4.235   4.797
 2200SOL    HW2 9607   1.915   4.283   4.936
 2201SOL     OW 9608   2.677   4.296   4.049
 2201SOL    HW1 9609   2.684   4.207   4.003
 2201SOL    HW2 9610   2.583   4.330   4.041
 2202SOL     OW 9611   3.519   4.328   4.930
 2202SOL    HW1 9612   3.481   4.259   4.992
 2202SOL    HW2 9613   3.601   4.292   4.886
 2203SOL     OW 9614   2.533   4.188   4.993
 2203SOL    HW1 9615   2.499   4.099   4.963
 2203SOL    HW2 9616   2.559   4.242   4.913
 2204SOL     OW 9617   2.335   4.224   3.915
 2204SOL    HW1 9618   2.396   4.304   3.919
 2204SOL    HW2 9619   2.240   4.255   3.922
 2205SOL     OW 9620   2.021   4.861   5.190
 2205SOL    HW1 9621   2.043   4.800   5.266
 2205SOL    HW2 9622   2.031   4.812   5.104
 2206SOL     OW 9623   3.209   4.783   4.958
 2206SOL    HW1 9624   3.233   4.720   4.884
 2206SOL    HW2 9625   3.119   4.823   4.940
 2207SOL     OW 9626   3.164   4.579   4.033
 2207SOL    HW1 9627   3.078   4.548   4.075
 2207SOL    HW2 9628   3.160   4.565   3.934
 2208SOL     OW 9629   1.945   4.982   4.746
 2208SOL    HW1 9630   1.940   4.981   4.846
 2208SOL    HW2 9631   1.862   4.941   4.708
 2209SOL     OW 9632   3.588   3.859   4.247
 2209SOL    HW1 9633   3.661   3.842   4.180
 2209SOL    HW2 9634   3.557   3.772   4.285
 2210SOL     OW 9635   3.142   4.651   4.396
 2210SOL    HW1 9636   3.202   4.570   4.398
 2210SOL    HW2 9637   3.182   4.720   4.336
 2211SOL     OW 9638   3.703   3.899   4.687
 2211SOL    HW1 9639   3.742   3.814   4.651
 2211SOL    HW2 9640   3.605   3.901   4.668
 2212SOL     OW 9641   2.125   4.050   4.444
 2212SOL    HW1 9642   2.046   4.101   4.410
 2212SOL    HW2 9643   2.116   4.035   4.542
 2213SOL     OW 9644   2.684   4.726   5.096
 2213SOL    HW1 9645   2.724   4.725   5.004
 2213SOL    HW2 9646   2.694   4.818   5.136
 2214SOL     OW 9647   2.778   4.634   4.015
 2214SOL    HW1 9648   2.841   4.672   3.947
 2214SOL    HW2 9649   2.818   4.551   4.054
 2215SOL     OW 9650   3.476   5.016   5.013
 2215SOL    HW1 9651   3.536   5.019   5.093
 2215SOL    HW2 9652   3.401   5.080   5.026
 2216SOL     OW 9653   2.901   4.822   4.420
 2216SOL    HW1 9654   2.831   4.775   4.474
 2216SOL    HW2 9655   2.960   4.754   4.377
 2217SOL     OW 9656   2.876   3.960   4.695
 2217SOL    HW1 9657   2.868   3.924   4.602
 2217SOL    HW2 9658   2.874   3.884   4.760
 2218SOL     OW 9659   3.571   4.109   5.105
 2218SOL    HW1 9660   3.644   4.178   5.109
 2218SOL    HW2 9661   3.599   4.034   5.046
 2219SOL     OW 9662   1.937   4.069   3.757
 2219SOL    HW1 9663   1.845   4.041   3.728
 2219SOL    HW2 9664   1.968   4.146   3.701
 2220SOL     OW 9665   1.934   3.890   4.042
 2220SOL    HW1 9666   1.917   3.973   3.988
 2220SOL    HW2 9667   2.024   3.853   4.020
 2221SOL     OW 9668   3.536   4.607   4.978
 2221SOL    HW1 9669   3.509   4.518   4.941
 2221SOL    HW2 9670   3.537   4.675   4.905
 2222SOL     OW 9671   3.087   4.049   4.173
 2222SOL    HW1 9672   3.152   3.975   4.162
 2222SOL    HW2 9673   3.107   4.099   4.257
 2223SOL     OW 9674   2.456   4.469   4.376
 2223SOL    HW1 9675   2.506   4.554   4.357
 2223SOL    HW2 9676   2.368   4.471   4.328
 2224SOL     OW 9677   3.592   4.658   5.241
 2224SOL    HW1 9678   3.630   4.749   5.256
 2224SOL    HW2 9679   3.584   4.641   5.142
 2225SOL     OW 9680   2.721   4.680   4.585
 2225SOL    HW1 9681   2.775   4.611   4.633
 2225SOL    HW2 9682   2.689   4.749   4.651
 2226SOL     OW 9683   2.945   4.708   3.811
 2226SOL    HW1 9684   2.922   4.761   3.729
 2226SOL    HW2 9685   3.026   4.652   3.792
 2227SOL     OW 9686   1.941   4.964   4.377
 2227SOL    HW1 9687   1.940   4.917   4.465
 2227SOL    HW2 9688   2.023   4.936   4.326
 2228SOL     OW 9689   3.686   3.916   4.951
 2228SOL    HW1 9690   3.682   3.826   4.995
 2228SOL    HW2 9691   3.689   3.905   4.852
 2229SOL     OW 9692   2.290   4.148   4.244
 2229SOL    HW1 9693   2.320   4.076   4.182
 2229SOL    HW2 9694   2.251   4.108   4.327
 2230SOL     OW 9695   3.286   3.938   4.836
 2230SOL    HW1 9696   3.338   3.873   4.891
 2230SOL    HW2 9697   3.237   4.001   4.897
 2231SOL     OW 9698   2.863   3.758   4.878
 2231SOL    HW1 9699   2.800   3.686   4.847
 2231SOL    HW2 9700   2.956   3.722   4.878
 2232SOL     OW 9701   2.632   5.054   4.025
 2232SOL    HW1 9702   2.586   4.967   4.042
 2232SOL    HW2 9703   2.723   5.051   4.066
 2233SOL     OW 9704   3.214   3.776   3.892
 2233SOL    HW1 9705   3.249   3.735   3.808
 2233SOL    HW2 9706   3.124   3.738   3.912
 2234SOL     OW 9707   3.162   4.177   4.415
 2234SOL    HW1 9708   3.103   4.257   4.419
 2234SOL    HW2 9709   3.177   4.142   4.508
 2235SOL     OW 9710   3.455   3.945   4.606
 2235SOL    HW1 9711   3.371   3.944   4.660
 2235SOL    HW2 9712   3.457   4.028   4.550
 2236SOL     OW 9713   1.901   4.801   4.024
 2236SOL    HW1 9714   2.000   4.790   4.015
 2236SOL    HW2 9715   1.861   4.715   4.056
 2237SOL     OW 9716   3.954   0.628   0.113
 2237SOL    HW1 9717   3.861   0.626   0.150
 2237SOL    HW2 9718   3.955   0.589   0.021
 2238SOL     OW 9719   3.949   0.275   0.996
 2238SOL    HW1 9720   3.984   0.258   1.088
 2238SOL    HW2 9721   3.861   0.230   0.984
 2239SOL     OW 9722   3.743   0.368   0.647
 2239SOL    HW1 9723   3.661   0.411   0.686
 2239SOL    HW2 9724   3.715   0.295   0.584
 2240SOL     OW 9725   4.293   1.275   1.165
 2240SOL    HW1 9726   4.200   1.268   1.128
 2240SOL    HW2 9727   4.304   1.364   1.209
 2241SOL     OW 9728   4.859   0.703   0.717
 2241SOL    HW1 9729   4.916   0.781   0.692
 2241SOL    HW2 9730   4.799   0.729   0.793
 2242SOL     OW 9731   4.492   1.144   1.023
 2242SOL    HW1 9732   4.414   1.161   1.083
 2242SOL    HW2 9733   4.526   1.231   0.987
 2243SOL     OW 9734   4.574   0.798   1.823
 2243SOL    HW1 9735   4.570   0.874   1.888
 2243SOL    HW2 9736   4.596   0.834   1.732
 2244SOL     OW 9737   4.409   1.012   0.665
 2244SOL    HW1 9738   4.478   0.996   0.735
 2244SOL    HW2 9739   4.336   1.069   0.703
 2245SOL     OW 9740   4.059   1.435   1.061
 2245SOL    HW1 9741   3.981   1.404   1.008
 2245SOL    HW2 9742   4.117   1.493   1.004
 2246SOL     OW 9743   4.162   0.392   1.499
 2246SOL    HW1 9744   4.244   0.336   1.508
 2246SOL    HW2 9745   4.081   0.334   1.503
 2247SOL     OW 9746   3.955   1.713   0.483
 2247SOL    HW1 9747   3.989   1.790   0.537
 2247SOL    HW2 9748   3.999   1.713   0.393
 2248SOL     OW 9749   4.851   1.341   1.690
 2248SOL    HW1 9750   4.898   1.341   1.778
 2248SOL    HW2 9751   4.803   1.254   1.679
 2249SOL     OW 9752   3.954   1.434   0.538
 2249SOL    HW1 9753   3.928   1.530   0.538
 2249SOL    HW2 9754   3.883   1.380   0.583
 2250SOL     OW 9755   3.964   1.091   0.886
 2250SOL    HW1 9756   3.978   1.007   0.938
 2250SOL    HW2 9757   3.909   1.155   0.941
 2251SOL     OW 9758   4.344   1.786   1.439
 2251SOL    HW1 9759   4.252   1.769   1.474
 2251SOL    HW2 9760   4.372   1.878   1.465
 2252SOL     OW 9761   4.330   0.964   0.123
 2252SOL    HW1 9762   4.337   1.048   0.069
 2252SOL    HW2 9763   4.376   0.977   0.211
 2253SOL     OW 9764   3.846   0.643   0.563
 2253SOL    HW1 9765   3.801   0.555   0.580
 2253SOL    HW2 9766   3.845   0.697   0.647
 2254SOL     OW 9767   3.751   1.596   0.117
 2254SOL    HW1 9768   3.732   1.500   0.138
 2254SOL    HW2 9769   3.718   1.654   0.192
 2255SOL     OW 9770   3.837   0.737   1.597
 2255SOL    HW1 9771   3.925   0.724   1.642
 2255SOL    HW2 9772   3.824   0.834   1.575
 2256SOL     OW 9773   4.337   1.365   0.726
 2256SOL    HW1 9774   4.288   1.278   0.735
 2256SOL    HW2 9775   4.314   1.408   0.639
 2257SOL     OW 9776   4.533   0.004   0.502
 2257SOL    HW1 9777   4.573   0.095   0.493
 2257SOL    HW2 9778   4.433   0.012   0.508
 2258SOL     OW 9779   3.921   0.976   1.264
 2258SOL    HW1 9780   4.010   0.931   1.250
 2258SOL    HW2 9781   3.848   0.911   1.245
 2259SOL     OW 9782   4.041   0.251   1.801
 2259SOL    HW1 9783   4.112   0.322   1.807
 2259SOL    HW2 9784   3.953   0.290   1.829
 2260SOL     OW 9785   4.322   0.729   0.270
 2260SOL    HW1 9786   4.346   0.798   0.202
 2260SOL    HW2 9787   4.244   0.762   0.324
 2261SOL     OW 9788   4.531   0.605   1.465
 2261SOL    HW1 9789   4.484   0.602   1.554
 2261SOL    HW2 9790   4.480   0.550   1.399
 2262SOL     OW 9791   4.697   0.890   1.572
 2262SOL    HW1 9792   4.743   0.806   1.543
 2262SOL    HW2 9793   4.641   0.924   1.497
 2263SOL     OW 9794   4.715   0.410   1.242
 2263SOL    HW1 9795   4.638   0.444   1.296
 2263SOL    HW2 9796   4.681   0.359   1.163
 2264SOL     OW 9797   4.765   0.701   0.429
 2264SOL    HW1 9798   4.791   0.697   0.525
 2264SOL    HW2 9799   4.680   0.650   0.415
 2265SOL     OW 9800   3.800   0.811   0.789
 2265SOL    HW1 9801   3.899   0.799   0.798
 2265SOL    HW2 9802   3.776   0.906   0.810
 2266SOL     OW 9803   4.589   0.348   0.195
 2266SOL    HW1 9804   4.648   0.411   0.146
 2266SOL    HW2 9805   4.608   0.254   0.166
 2267SOL     OW 9806   4.274   0.196   0.885
 2267SOL    HW1 9807   4.269   0.191   0.985
 2267SOL    HW2 9808   4.276   0.292   0.856
 2268SOL     OW 9809   4.732   1.456   0.477
 2268SOL    HW1 9810   4.686   1.528   0.425
 2268SOL    HW2 9811   4.728   1.476   0.575
 2269SOL     OW 9812   4.075   1.801   0.853
 2269SOL    HW1 9813   4.125   1.715   0.859
 2269SOL    HW2 9814   4.140   1.878   0.850
 2270SOL     OW 9815   4.951   1.550   1.506
 2270SOL    HW1 9816   4.957   1.473   1.570
 2270SOL    HW2 9817   4.899   1.524   1.426
 2271SOL     OW 9818   4.045   0.943   0.242
 2271SOL    HW1 9819   4.127   0.982   0.200
 2271SOL    HW2 9820   4.018   0.861   0.193
 2272SOL     OW 9821   4.835   1.776   0.237
 2272SOL    HW1 9822   4.775   1.714   0.287
 2272SOL    HW2 9823   4.866   1.732   0.152
 2273SOL     OW 9824   3.926   0.285   1.498
 2273SOL    HW1 9825   3.846   0.345   1.485
 2273SOL    HW2 9826   3.916   0.236   1.584
 2274SOL     OW 9827   4.188   1.743   0.323
 2274SOL    HW1 9828   4.221   1.782   0.409
 2274SOL    HW2 9829   4.264   1.736   0.258
 2275SOL     OW 9830   3.973   1.785   1.241
 2275SOL    HW1 9831   4.030   1.720   1.291
 2275SOL    HW2 9832   3.957   1.752   1.148
 2276SOL     OW 9833   4.664   1.698   0.904
 2276SOL    HW1 9834   4.744   1.641   0.925
 2276SOL    HW2 9835   4.615   1.658   0.827
 2277SOL     OW 9836   4.106   0.700   0.480
 2277SOL    HW1 9837   4.151   0.610   0.477
 2277SOL    HW2 9838   4.012   0.689   0.513
 2278SOL     OW 9839   4.338   0.122   0.117
 2278SOL    HW1 9840   4.436   0.100   0.124
 2278SOL    HW2 9841   4.307   0.105   0.024
 2279SOL     OW 9842   4.505   0.264   1.749
 2279SOL    HW1 9843   4.572   0.203   1.792
 2279SOL    HW2 9844   4.432   0.283   1.814
 2280SOL     OW 9845   4.612   1.514   1.195
 2280SOL    HW1 9846   4.589   1.489   1.101
 2280SOL    HW2 9847   4.673   1.445   1.234
 2281SOL     OW 9848   4.527   1.402   0.924
 2281SOL    HW1 9849   4.617   1.416   0.882
 2281SOL    HW2 9850   4.456   1.404   0.853
 2282SOL     OW 9851   4.646   0.503   0.899
 2282SOL    HW1 9852   4.621   0.494   0.803
 2282SOL    HW2 9853   4.694   0.421   0.930
 2283SOL     OW 9854   4.263   0.064   0.512
 2283SOL    HW1 9855   4.182   0.065   0.570
 2283SOL    HW2 9856   4.266   0.147   0.457
 2284SOL     OW 9857   4.021   0.035   0.171
 2284SOL    HW1 9858   4.070   0.119   0.150
 2284SOL    HW2 9859   4.083  -0.030   0.216
 2285SOL     OW 9860   4.659   0.236   0.480
 2285SOL    HW1 9861   4.611   0.277   0.402
 2285SOL    HW2 9862   4.758   0.234   0.461
 2286SOL     OW 9863   4.800   0.683   1.464
 2286SOL    HW1 9864   4.720   0.622   1.467
 2286SOL    HW2 9865   4.881   0.630   1.440
 2287SOL     OW 9866   4.951   1.570   0.793
 2287SOL    HW1 9867   4.972   1.644   0.728
 2287SOL    HW2 9868   5.019   1.570   0.866
 2288SOL     OW 9869   4.183   1.152   0.741
 2288SOL    HW1 9870   4.112   1.125   0.806
 2288SOL    HW2 9871   4.157   1.124   0.648
 2289SOL     OW 9872   4.995   1.797   0.591
 2289SOL    HW1 9873   5.039   1.861   0.527
 2289SOL    HW2 9874   4.945   1.849   0.661
 2290SOL     OW 9875   4.756   0.549   0.016
 2290SOL    HW1 9876   4.715   0.631  -0.023
 2290SOL    HW2 9877   4.820   0.575   0.089
 2291SOL     OW 9878   3.802   0.556   1.386
 2291SOL    HW1 9879   3.894   0.555   1.345
 2291SOL    HW2 9880   3.796   0.630   1.453
 2292SOL     OW 9881   4.285   0.222   1.147
 2292SOL    HW1 9882   4.323   0.138   1.184
 2292SOL    HW2 9883   4.197   0.241   1.191
 2293SOL     OW 9884   4.590   0.454   0.642
 2293SOL    HW1 9885   4.558   0.526   0.580
 2293SOL    HW2 9886   4.614   0.373   0.589
 2294SOL     OW 9887   4.741   0.039   0.753
 2294SOL    HW1 9888   4.669   0.044   0.684
 2294SOL    HW2 9889   4.717  -0.030   0.822
 2295SOL     OW 9890   4.212   1.385   0.174
 2295SOL    HW1 9891   4.125   1.370   0.221
 2295SOL    HW2 9892   4.195   1.411   0.079
 2296SOL     OW 9893   4.251   0.256   0.328
 2296SOL    HW1 9894   4.278   0.197   0.253
 2296SOL    HW2 9895   4.251   0.351   0.297
 2297SOL     OW 9896   4.788   1.347   1.340
 2297SOL    HW1 9897   4.708   1.324   1.395
 2297SOL    HW2 9898   4.871   1.321   1.389
 2298SOL     OW 9899   4.835   1.195   1.100
 2298SOL    HW1 9900   4.795   1.239   1.181
 2298SOL    HW2 9901   4.794   1.232   1.017
 2299SOL     OW 9902   4.639   0.089   1.402
 2299SOL    HW1 9903   4.664   0.069   1.307
 2299SOL    HW2 9904   4.711   0.145   1.444
 2300SOL     OW 9905   4.704   1.116   1.719
 2300SOL    HW1 9906   4.605   1.122   1.729
 2300SOL    HW2 9907   4.727   1.036   1.663
 2301SOL     OW 9908   4.134   0.813   1.251
 2301SOL    HW1 9909   4.220   0.825   1.301
 2301SOL    HW2 9910   4.092   0.726   1.278
 2302SOL     OW 9911   3.788   1.564   1.331
 2302SOL    HW1 9912   3.742   1.646   1.297
 2302SOL    HW2 9913   3.886   1.583   1.340
 2303SOL     OW 9914   4.091   1.100   0.501
 2303SOL    HW1 9915   4.084   1.183   0.445
 2303SOL    HW2 9916   4.095   1.020   0.441
 2304SOL     OW 9917   4.290   0.537   0.865
 2304SOL    HW1 9918   4.302   0.603   0.791
 2304SOL    HW2 9919   4.336   0.571   0.948
 2305SOL     OW 9920   4.976   1.348   0.388
 2305SOL    HW1 9921   5.026   1.425   0.428
 2305SOL    HW2 9922   4.881   1.350   0.420
 2306SOL     OW 9923   4.078   1.510   1.329
 2306SOL    HW1 9924   4.057   1.466   1.242
 2306SOL    HW2 9925   4.175   1.536   1.332
 2307SOL     OW 9926   4.126   0.751   1.598
 2307SOL    HW1 9927   4.194   0.806   1.551
 2307SOL    HW2 9928   4.166   0.663   1.625
 2308SOL     OW 9929   4.737   0.105   1.770
 2308SOL    HW1 9930   4.743   0.190   1.718
 2308SOL    HW2 9931   4.769   0.029   1.713
 2309SOL     OW 9932   4.228   0.050   1.740
 2309SOL    HW1 9933   4.186  -0.007   1.670
 2309SOL    HW2 9934   4.162   0.119   1.772
 2310SOL     OW 9935   4.297   0.870   1.029
 2310SOL    HW1 9936   4.341   0.959   1.020
 2310SOL    HW2 9937   4.234   0.870   1.106
 2311SOL     OW 9938   5.084   0.862   1.045
 2311SOL    HW1 9939   5.009   0.862   0.979
 2311SOL    HW2 9940   5.121   0.770   1.054
 2312SOL     OW 9941   4.933   0.525   0.275
 2312SOL    HW1 9942   4.946   0.441   0.329
 2312SOL    HW2 9943   4.904   0.599   0.335
 2313SOL     OW 9944   4.031   0.213   1.231
 2313SOL    HW1 9945   4.008   0.250   1.321
 2313SOL    HW2 9946   4.001   0.118   1.225
 2314SOL     OW 9947   3.761   1.310   1.282
 2314SOL    HW1 9948   3.814   1.261   1.350
 2314SOL    HW2 9949   3.783   1.408   1.287
 2315SOL     OW 9950   4.456   0.634   1.064
 2315SOL    HW1 9951   4.515   0.608   0.988
 2315SOL    HW2 9952   4.428   0.730   1.053
 2316SOL     OW 9953   4.031   0.063   0.618
 2316SOL    HW1 9954   4.020   0.157   0.651
 2316SOL    HW2 9955   4.026   0.000   0.695
 2317SOL     OW 9956   4.747   0.766   0.966
 2317SOL    HW1 9957   4.762   0.787   1.062
 2317SOL    HW2 9958   4.717   0.671   0.957
 2318SOL     OW 9959   4.704   1.573   1.700
 2318SOL    HW1 9960   4.684   1.617   1.612
 2318SOL    HW2 9961   4.743   1.482   1.684
 2319SOL     OW 9962   4.074   0.898   1.804
 2319SOL    HW1 9963   4.150   0.942   1.852
 2319SOL    HW2 9964   4.109   0.851   1.722
 2320SOL     OW 9965   4.792   1.333   0.849
 2320SOL    HW1 9966   4.799   1.249   0.794
 2320SOL    HW2 9967   4.854   1.402   0.813
 2321SOL     OW 9968   4.043   0.810   0.949
 2321SOL    HW1 9969   4.136   0.846   0.954
 2321SOL    HW2 9970   4.037   0.725   1.001
 2322SOL     OW 9971   4.063   0.509   1.006
 2322SOL    HW1 9972   4.011   0.426   0.989
 2322SOL    HW2 9973   4.140   0.514   0.942
 2323SOL     OW 9974   4.862   0.380   1.678
 2323SOL    HW1 9975   4.817   0.443   1.742
 2323SOL    HW2 9976   4.955   0.411   1.661
 2324SOL     OW 9977   4.884   0.207   1.477
 2324SOL    HW1 9978   4.884   0.271   1.554
 2324SOL    HW2 9979   4.912   0.255   1.394
 2325SOL     OW 9980   3.732   1.326   0.200
 2325SOL    HW1 9981   3.639   1.347   0.169
 2325SOL    HW2 9982   3.742   1.227   0.213
 2326SOL     OW 9983   3.812   1.801   0.927
 2326SOL    HW1 9984   3.770   1.715   0.900
 2326SOL    HW2 9985   3.906   1.804   0.893
 2327SOL     OW 9986   4.228   1.568   0.910
 2327SOL    HW1 9987   4.294   1.642   0.919
 2327SOL    HW2 9988   4.272   1.489   0.868
 2328SOL     OW 9989   4.726   0.796   1.238
 2328SOL    HW1 9990   4.767   0.764   1.324
 2328SOL    HW2 9991   4.630   0.769   1.235
 2329SOL     OW 9992   3.764   0.544   1.114
 2329SOL    HW1 9993   3.849   0.511   1.073
 2329SOL    HW2 9994   3.777   0.559   1.212
 2330SOL     OW 9995   3.913   0.520   1.722
 2330SOL    HW1 9996   3.972   0.480   1.652
 2330SOL    HW2 9997   3.855   0.591   1.681
 2331SOL     OW 9998   4.539   0.572   0.325
 2331SOL    HW1 9999   4.546   0.483   0.279
 2331SOL    HW210000   4.445   0.606   0.317
 2332SOL     OW10001   4.395   0.464   1.269
 2332SOL    HW110002   4.361   0.375   1.239
 2332SOL    HW210003   4.421   0.518   1.189
 2333SOL     OW10004   4.654   1.678   1.465
 2333SOL    HW110005   4.630   1.660   1.370
 2333SOL    HW210006   4.684   1.772   1.475
 2334SOL     OW10007   4.197   0.500   0.191
 2334SOL    HW110008   4.258   0.580   0.195
 2334SOL    HW210009   4.102   0.531   0.198
 2335SOL     OW10010   3.883   1.137   1.466
 2335SOL    HW110011   3.905   1.076   1.542
 2335SOL    HW210012   3.893   1.088   1.380
 2336SOL     OW10013   4.976   1.731   1.128
 2336SOL    HW110014   5.060   1.736   1.074
 2336SOL    HW210015   4.953   1.635   1.146
 2337SOL     OW10016   3.807   1.258   1.022
 2337SOL    HW110017   3.802   1.257   1.122
 2337SOL    HW210018   3.724   1.217   0.984
 2338SOL     OW10019   4.412   1.662   1.716
 2338SOL    HW110020   4.356   1.743   1.725
 2338SOL    HW210021   4.464   1.666   1.630
 2339SOL     OW10022   4.627   0.086   0.133
 2339SOL    HW110023   4.678   0.087   0.047
 2339SOL    HW210024   4.683   0.044   0.204
 2340SOL     OW10025   4.554   1.273   1.422
 2340SOL    HW110026   4.549   1.306   1.517
 2340SOL    HW210027   4.468   1.292   1.376
 2341SOL     OW10028   4.396   1.616   0.154
 2341SOL    HW110029   4.405   1.626   0.055
 2341SOL    HW210030   4.356   1.527   0.175
 2342SOL     OW10031   3.987   0.326   0.720
 2342SOL    HW110032   3.908   0.377   0.686
 2342SOL    HW210033   3.978   0.311   0.818
 2343SOL     OW10034   4.546   1.002   1.372
 2343SOL    HW110035   4.586   1.001   1.280
 2343SOL    HW210036   4.556   1.094   1.412
 2344SOL     OW10037   4.640   0.910   0.291
 2344SOL    HW110038   4.703   0.948   0.223
 2344SOL    HW210039   4.680   0.827   0.330
 2345SOL     OW10040   4.096   1.288   1.490
 2345SOL    HW110041   4.083   1.381   1.456
 2345SOL    HW210042   4.012   1.236   1.477
 2346SOL     OW10043   4.763   1.098   0.696
 2346SOL    HW110044   4.693   1.051   0.750
 2346SOL    HW210045   4.822   1.030   0.653
 2347SOL     OW10046   4.738   0.236   0.971
 2347SOL    HW110047   4.730   0.200   0.878
 2347SOL    HW210048   4.736   0.160   1.036
 2348SOL     OW10049   4.314   1.487   0.491
 2348SOL    HW110050   4.356   1.429   0.421
 2348SOL    HW210051   4.270   1.566   0.447
 2349SOL     OW10052   3.979   1.348   0.290
 2349SOL    HW110053   3.883   1.349   0.263
 2349SOL    HW210054   3.991   1.401   0.374
 2350SOL     OW10055   3.829   1.013   1.726
 2350SOL    HW110056   3.752   0.980   1.780
 2350SOL    HW210057   3.914   0.983   1.768
 2351SOL     OW10058   4.396   0.203   1.489
 2351SOL    HW110059   4.486   0.187   1.449
 2351SOL    HW210060   4.404   0.208   1.588
 2352SOL     OW10061   3.796   0.166   0.318
 2352SOL    HW110062   3.779   0.249   0.264
 2352SOL    HW210063   3.886   0.129   0.296
 2353SOL     OW10064   4.337   0.842   1.431
 2353SOL    HW110065   4.393   0.923   1.414
 2353SOL    HW210066   4.396   0.762   1.434
 2354SOL     OW10067   4.440   0.565   1.708
 2354SOL    HW110068   4.459   0.630   1.782
 2354SOL    HW210069   4.500   0.485   1.717
 2355SOL     OW10070   4.318   0.745   0.652
 2355SOL    HW110071   4.368   0.830   0.633
 2355SOL    HW210072   4.230   0.747   0.604
 2356SOL     OW10073   4.583   1.374   0.016
 2356SOL    HW110074   4.537   1.389   0.104
 2356SOL    HW210075   4.627   1.459  -0.014
 2357SOL     OW10076   4.385   1.790   0.953
 2357SOL    HW110077   4.339   1.878   0.940
 2357SOL    HW210078   4.484   1.802   0.946
 2358SOL     OW10079   4.583   0.956   0.861
 2358SOL    HW110080   4.637   0.887   0.909
 2358SOL    HW210081   4.551   1.025   0.927
 2359SOL     OW10082   4.807   0.984   0.087
 2359SOL    HW110083   4.784   1.037   0.005
 2359SOL    HW210084   4.888   0.928   0.068
 2360SOL     OW10085   3.945   1.314   1.844
 2360SOL    HW110086   3.880   1.241   1.823
 2360SOL    HW210087   3.949   1.328   1.942
 2361SOL     OW10088   3.803   1.240   0.653
 2361SOL    HW110089   3.802   1.193   0.741
 2361SOL    HW210090   3.885   1.212   0.602
 2362SOL     OW10091   4.396   1.391   1.624
 2362SOL    HW110092   4.318   1.341   1.662
 2362SOL    HW210093   4.393   1.486   1.655
 2363SOL     OW10094   4.152   0.424   0.520
 2363SOL    HW110095   4.182   0.352   0.458
 2363SOL    HW210096   4.113   0.384   0.603
 2364SOL     OW10097   4.041   0.547   1.280
 2364SOL    HW110098   4.079   0.488   1.352
 2364SOL    HW210099   4.081   0.521   1.192
 2365SOL     OW10100   4.536   1.586   0.687
 2365SOL    HW110101   4.568   1.596   0.593
 2365SOL    HW210102   4.457   1.524   0.689
 2366SOL     OW10103   4.725   0.034   1.154
 2366SOL    HW110104   4.662  -0.038   1.123
 2366SOL    HW210105   4.818  -0.002   1.154
 2367SOL     OW10106   4.342   1.567   1.284
 2367SOL    HW110107   4.337   1.649   1.341
 2367SOL    HW210108   4.431   1.564   1.239
 2368SOL     OW10109   4.599   1.646   0.337
 2368SOL    HW110110   4.522   1.611   0.283
 2368SOL    HW210111   4.567   1.717   0.399
 2369SOL     OW10112   3.954   0.628   1.975
 2369SOL    HW110113   3.861   0.626   2.012
 2369SOL    HW210114   3.955   0.589   1.883
 2370SOL     OW10115   3.949   0.275   2.858
 2370SOL    HW110116   3.984   0.258   2.950
 2370SOL    HW210117   3.861   0.230   2.846
 2371SOL     OW10118   3.743   0.368   2.509
 2371SOL    HW110119   3.661   0.411   2.548
 2371SOL    HW210120   3.715   0.295   2.446
 2372SOL     OW10121   4.293   1.275   3.027
 2372SOL    HW110122   4.200   1.268   2.990
 2372SOL    HW210123   4.304   1.364   3.071
 2373SOL     OW10124   4.859   0.703   2.579
 2373SOL    HW110125   4.916   0.781   2.554
 2373SOL    HW210126   4.799   0.729   2.655
 2374SOL     OW10127   4.492   1.144   2.885
 2374SOL    HW110128   4.414   1.161   2.945
 2374SOL    HW210129   4.526   1.231   2.849
 2375SOL     OW10130   4.574   0.798   3.685
 2375SOL    HW110131   4.570   0.874   3.750
 2375SOL    HW210132   4.596   0.834   3.594
 2376SOL     OW10133   4.409   1.012   2.527
 2376SOL    HW110134   4.478   0.996   2.597
 2376SOL    HW210135   4.336   1.069   2.565
 2377SOL     OW10136   4.410   1.161   3.665
 2377SOL    HW110137   4.470   1.240   3.679
 2377SOL    HW210138   4.324   1.192   3.624
 2378SOL     OW10139   4.059   1.435   2.923
 2378SOL    HW110140   3.981   1.404   2.870
 2378SOL    HW210141   4.117   1.493   2.866
 2379SOL     OW10142   4.162   0.392   3.361
 2379SOL    HW110143   4.244   0.336   3.370
 2379SOL    HW210144   4.081   0.334   3.365
 2380SOL     OW10145   4.851   1.341   3.552
 2380SOL    HW110146   4.898   1.341   3.640
 2380SOL    HW210147   4.803   1.254   3.541
 2381SOL     OW10148   3.954   1.434   2.400
 2381SOL    HW110149   3.928   1.530   2.400
 2381SOL    HW210150   3.883   1.380   2.445
 2382SOL     OW10151   3.964   1.091   2.748
 2382SOL    HW110152   3.978   1.007   2.800
 2382SOL    HW210153   3.909   1.155   2.803
 2383SOL     OW10154   4.344   1.786   3.301
 2383SOL    HW110155   4.252   1.769   3.336
 2383SOL    HW210156   4.372   1.878   3.327
 2384SOL     OW10157   4.330   0.964   1.985
 2384SOL    HW110158   4.337   1.048   1.931
 2384SOL    HW210159   4.376   0.977   2.073
 2385SOL     OW10160   3.846   0.643   2.425
 2385SOL    HW110161   3.801   0.555   2.442
 2385SOL    HW210162   3.845   0.697   2.509
 2386SOL     OW10163   3.837   0.737   3.459
 2386SOL    HW110164   3.925   0.724   3.504
 2386SOL    HW210165   3.824   0.834   3.437
 2387SOL     OW10166   4.337   1.365   2.588
 2387SOL    HW110167   4.288   1.278   2.597
 2387SOL    HW210168   4.314   1.408   2.501
 2388SOL     OW10169   4.533   0.004   2.364
 2388SOL    HW110170   4.573   0.095   2.355
 2388SOL    HW210171   4.433   0.012   2.370
 2389SOL     OW10172   3.921   0.976   3.126
 2389SOL    HW110173   4.010   0.931   3.112
 2389SOL    HW210174   3.848   0.911   3.107
 2390SOL     OW10175   4.041   0.251   3.663
 2390SOL    HW110176   4.112   0.322   3.669
 2390SOL    HW210177   3.953   0.290   3.691
 2391SOL     OW10178   4.322   0.729   2.132
 2391SOL    HW110179   4.346   0.798   2.064
 2391SOL    HW210180   4.244   0.762   2.186
 2392SOL     OW10181   4.531   0.605   3.327
 2392SOL    HW110182   4.484   0.602   3.416
 2392SOL    HW210183   4.480   0.550   3.261
 2393SOL     OW10184   4.697   0.890   3.434
 2393SOL    HW110185   4.743   0.806   3.405
 2393SOL    HW210186   4.641   0.924   3.359
 2394SOL     OW10187   4.715   0.410   3.104
 2394SOL    HW110188   4.638   0.444   3.158
 2394SOL    HW210189   4.681   0.359   3.025
 2395SOL     OW10190   4.765   0.701   2.291
 2395SOL    HW110191   4.791   0.697   2.387
 2395SOL    HW210192   4.680   0.650   2.277
 2396SOL     OW10193   3.800   0.811   2.651
 2396SOL    HW110194   3.899   0.799   2.660
 2396SOL    HW210195   3.776   0.906   2.672
 2397SOL     OW10196   3.854   1.821   3.433
 2397SOL    HW110197   3.844   1.806   3.532
 2397SOL    HW210198   3.768   1.857   3.397
 2398SOL     OW10199   4.589   0.348   2.057
 2398SOL    HW110200   4.648   0.411   2.008
 2398SOL    HW210201   4.608   0.254   2.028
 2399SOL     OW10202   4.274   0.196   2.747
 2399SOL    HW110203   4.269   0.191   2.847
 2399SOL    HW210204   4.276   0.292   2.718
 2400SOL     OW10205   4.732   1.456   2.339
 2400SOL    HW110206   4.686   1.528   2.287
 2400SOL    HW210207   4.728   1.476   2.437
 2401SOL     OW10208   4.951   1.550   3.368
 2401SOL    HW110209   4.957   1.473   3.432
 2401SOL    HW210210   4.899   1.524   3.288
 2402SOL     OW10211   4.045   0.943   2.104
 2402SOL    HW110212   4.127   0.982   2.062
 2402SOL    HW210213   4.018   0.861   2.055
 2403SOL     OW10214   4.185   1.266   3.589
 2403SOL    HW110215   4.135   1.267   3.503
 2403SOL    HW210216   4.122   1.248   3.665
 2404SOL     OW10217   4.835   1.776   2.099
 2404SOL    HW110218   4.775   1.714   2.149
 2404SOL    HW210219   4.866   1.732   2.014
 2405SOL     OW10220   3.926   0.285   3.360
 2405SOL    HW110221   3.846   0.345   3.347
 2405SOL    HW210222   3.916   0.236   3.446
 2406SOL     OW10223   4.188   1.743   2.185
 2406SOL    HW110224   4.221   1.782   2.271
 2406SOL    HW210225   4.264   1.736   2.120
 2407SOL     OW10226   4.664   1.698   2.766
 2407SOL    HW110227   4.744   1.641   2.787
 2407SOL    HW210228   4.615   1.658   2.689
 2408SOL     OW10229   4.106   0.700   2.342
 2408SOL    HW110230   4.151   0.610   2.339
 2408SOL    HW210231   4.012   0.689   2.375
 2409SOL     OW10232   4.338   0.122   1.979
 2409SOL    HW110233   4.436   0.100   1.986
 2409SOL    HW210234   4.307   0.105   1.886
 2410SOL     OW10235   4.505   0.264   3.611
 2410SOL    HW110236   4.572   0.203   3.654
 2410SOL    HW210237   4.432   0.283   3.676
 2411SOL     OW10238   4.612   1.514   3.057
 2411SOL    HW110239   4.589   1.489   2.963
 2411SOL    HW210240   4.673   1.445   3.096
 2412SOL     OW10241   4.527   1.402   2.786
 2412SOL    HW110242   4.617   1.416   2.744
 2412SOL    HW210243   4.456   1.404   2.715
 2413SOL     OW10244   4.646   0.503   2.761
 2413SOL    HW110245   4.621   0.494   2.665
 2413SOL    HW210246   4.694   0.421   2.792
 2414SOL     OW10247   4.263   0.064   2.374
 2414SOL    HW110248   4.182   0.065   2.432
 2414SOL    HW210249   4.266   0.147   2.319
 2415SOL     OW10250   4.021   0.035   2.033
 2415SOL    HW110251   4.070   0.119   2.012
 2415SOL    HW210252   4.083  -0.030   2.078
 2416SOL     OW10253   4.659   0.236   2.342
 2416SOL    HW110254   4.611   0.277   2.264
 2416SOL    HW210255   4.758   0.234   2.323
 2417SOL     OW10256   4.800   0.683   3.326
 2417SOL    HW110257   4.720   0.622   3.329
 2417SOL    HW210258   4.881   0.630   3.302
 2418SOL     OW10259   4.951   1.570   2.655
 2418SOL    HW110260   4.972   1.644   2.590
 2418SOL    HW210261   5.019   1.570   2.728
 2419SOL     OW10262   4.183   1.152   2.603
 2419SOL    HW110263   4.112   1.125   2.668
 2419SOL    HW210264   4.157   1.124   2.510
 2420SOL     OW10265   4.995   1.797   2.453
 2420SOL    HW110266   5.039   1.861   2.389
 2420SOL    HW210267   4.945   1.849   2.523
 2421SOL     OW10268   4.756   0.549   1.878
 2421SOL    HW110269   4.715   0.631   1.839
 2421SOL    HW210270   4.820   0.575   1.951
 2422SOL     OW10271   3.802   0.556   3.248
 2422SOL    HW110272   3.894   0.555   3.207
 2422SOL    HW210273   3.796   0.630   3.315
 2423SOL     OW10274   4.285   0.222   3.009
 2423SOL    HW110275   4.323   0.138   3.046
 2423SOL    HW210276   4.197   0.241   3.053
 2424SOL     OW10277   4.590   0.454   2.504
 2424SOL    HW110278   4.558   0.526   2.442
 2424SOL    HW210279   4.614   0.373   2.451
 2425SOL     OW10280   4.741   0.039   2.615
 2425SOL    HW110281   4.669   0.044   2.546
 2425SOL    HW210282   4.717  -0.030   2.684
 2426SOL     OW10283   4.251   0.256   2.190
 2426SOL    HW110284   4.278   0.197   2.115
 2426SOL    HW210285   4.251   0.351   2.159
 2427SOL     OW10286   4.788   1.347   3.202
 2427SOL    HW110287   4.708   1.324   3.257
 2427SOL    HW210288   4.871   1.321   3.251
 2428SOL     OW10289   4.835   1.195   2.962
 2428SOL    HW110290   4.795   1.239   3.043
 2428SOL    HW210291   4.794   1.232   2.879
 2429SOL     OW10292   4.639   0.089   3.264
 2429SOL    HW110293   4.664   0.069   3.169
 2429SOL    HW210294   4.711   0.145   3.306
 2430SOL     OW10295   4.704   1.116   3.581
 2430SOL    HW110296   4.605   1.122   3.591
 2430SOL    HW210297   4.727   1.036   3.525
 2431SOL     OW10298   4.429   1.050   2.230
 2431SOL    HW110299   4.415   1.057   2.329
 2431SOL    HW210300   4.513   0.999   2.212
 2432SOL     OW10301   4.134   0.813   3.113
 2432SOL    HW110302   4.220   0.825   3.163
 2432SOL    HW210303   4.092   0.726   3.140
 2433SOL     OW10304   4.091   1.100   2.363
 2433SOL    HW110305   4.084   1.183   2.307
 2433SOL    HW210306   4.095   1.020   2.303
 2434SOL     OW10307   4.290   0.537   2.727
 2434SOL    HW110308   4.302   0.603   2.653
 2434SOL    HW210309   4.336   0.571   2.810
 2435SOL     OW10310   4.976   1.348   2.250
 2435SOL    HW110311   5.026   1.425   2.290
 2435SOL    HW210312   4.881   1.350   2.282
 2436SOL     OW10313   4.078   1.510   3.191
 2436SOL    HW110314   4.057   1.466   3.104
 2436SOL    HW210315   4.175   1.536   3.194
 2437SOL     OW10316   4.126   0.751   3.460
 2437SOL    HW110317   4.194   0.806   3.413
 2437SOL    HW210318   4.166   0.663   3.487
 2438SOL     OW10319   4.737   0.105   3.632
 2438SOL    HW110320   4.743   0.190   3.580
 2438SOL    HW210321   4.769   0.029   3.575
 2439SOL     OW10322   4.228   0.050   3.602
 2439SOL    HW110323   4.186  -0.007   3.532
 2439SOL    HW210324   4.162   0.119   3.634
 2440SOL     OW10325   4.297   0.870   2.891
 2440SOL    HW110326   4.341   0.959   2.882
 2440SOL    HW210327   4.234   0.870   2.968
 2441SOL     OW10328   5.084   0.862   2.907
 2441SOL    HW110329   5.009   0.862   2.841
 2441SOL    HW210330   5.121   0.770   2.916
 2442SOL     OW10331   4.933   0.525   2.137
 2442SOL    HW110332   4.946   0.441   2.191
 2442SOL    HW210333   4.904   0.599   2.197
 2443SOL     OW10334   4.031   0.213   3.093
 2443SOL    HW110335   4.008   0.250   3.183
 2443SOL    HW210336   4.001   0.118   3.087
 2444SOL     OW10337   3.761   1.310   3.144
 2444SOL    HW110338   3.814   1.261   3.212
 2444SOL    HW210339   3.783   1.408   3.149
 2445SOL     OW10340   4.456   0.634   2.926
 2445SOL    HW110341   4.515   0.608   2.850
 2445SOL    HW210342   4.428   0.730   2.915
 2446SOL     OW10343   4.031   0.063   2.480
 2446SOL    HW110344   4.020   0.157   2.513
 2446SOL    HW210345   4.026   0.000   2.557
 2447SOL     OW10346   4.747   0.766   2.828
 2447SOL    HW110347   4.762   0.787   2.924
 2447SOL    HW210348   4.717   0.671   2.819
 2448SOL     OW10349   4.704   1.573   3.562
 2448SOL    HW110350   4.684   1.617   3.474
 2448SOL    HW210351   4.743   1.482   3.546
 2449SOL     OW10352   4.074   0.898   3.666
 2449SOL    HW110353   4.150   0.942   3.714
 2449SOL    HW210354   4.109   0.851   3.584
 2450SOL     OW10355   5.264   0.274   1.987
 2450SOL    HW110356   5.203   0.199   2.010
 2450SOL    HW210357   5.286   0.326   2.070
 2451SOL     OW10358   4.792   1.333   2.711
 2451SOL    HW110359   4.799   1.249   2.656
 2451SOL    HW210360   4.854   1.402   2.675
 2452SOL     OW10361   4.043   0.810   2.811
 2452SOL    HW110362   4.136   0.846   2.816
 2452SOL    HW210363   4.037   0.725   2.863
 2453SOL     OW10364   4.063   0.509   2.868
 2453SOL    HW110365   4.011   0.426   2.851
 2453SOL    HW210366   4.140   0.514   2.804
 2454SOL     OW10367   4.862   0.380   3.540
 2454SOL    HW110368   4.817   0.443   3.604
 2454SOL    HW210369   4.955   0.411   3.523
 2455SOL     OW10370   4.884   0.207   3.339
 2455SOL    HW110371   4.884   0.271   3.416
 2455SOL    HW210372   4.912   0.255   3.256
 2456SOL     OW10373   4.228   1.568   2.772
 2456SOL    HW110374   4.294   1.642   2.781
 2456SOL    HW210375   4.272   1.489   2.730
 2457SOL     OW10376   4.726   0.796   3.100
 2457SOL    HW110377   4.767   0.764   3.186
 2457SOL    HW210378   4.630   0.769   3.097
 2458SOL     OW10379   3.764   0.544   2.976
 2458SOL    HW110380   3.849   0.511   2.935
 2458SOL    HW210381   3.777   0.559   3.074
 2459SOL     OW10382   3.913   0.520   3.584
 2459SOL    HW110383   3.972   0.480   3.514
 2459SOL    HW210384   3.855   0.591   3.543
 2460SOL     OW10385   4.539   0.572   2.187
 2460SOL    HW110386   4.546   0.483   2.141
 2460SOL    HW210387   4.445   0.606   2.179
 2461SOL     OW10388   3.976   1.564   3.606
 2461SOL    HW110389   3.946   1.621   3.682
 2461SOL    HW210390   3.969   1.467   3.632
 2462SOL     OW10391   4.395   0.464   3.131
 2462SOL    HW110392   4.361   0.375   3.101
 2462SOL    HW210393   4.421   0.518   3.051
 2463SOL     OW10394   4.654   1.678   3.327
 2463SOL    HW110395   4.630   1.660   3.232
 2463SOL    HW210396   4.684   1.772   3.337
 2464SOL     OW10397   4.197   0.500   2.053
 2464SOL    HW110398   4.258   0.580   2.057
 2464SOL    HW210399   4.102   0.531   2.060
 2465SOL     OW10400   3.883   1.137   3.328
 2465SOL    HW110401   3.905   1.076   3.404
 2465SOL    HW210402   3.893   1.088   3.242
 2466SOL     OW10403   4.976   1.731   2.990
 2466SOL    HW110404   5.060   1.736   2.936
 2466SOL    HW210405   4.953   1.635   3.008
 2467SOL     OW10406   4.412   1.662   3.578
 2467SOL    HW110407   4.356   1.743   3.587
 2467SOL    HW210408   4.464   1.666   3.492
 2468SOL     OW10409   3.854   1.794   3.713
 2468SOL    HW110410   3.813   1.720   3.766
 2468SOL    HW210411   3.918   1.845   3.771
 2469SOL     OW10412   4.554   1.273   3.284
 2469SOL    HW110413   4.549   1.306   3.379
 2469SOL    HW210414   4.468   1.292   3.238
 2470SOL     OW10415   3.987   0.326   2.582
 2470SOL    HW110416   3.908   0.377   2.548
 2470SOL    HW210417   3.978   0.311   2.680
 2471SOL     OW10418   4.546   1.002   3.234
 2471SOL    HW110419   4.586   1.001   3.142
 2471SOL    HW210420   4.556   1.094   3.274
 2472SOL     OW10421   4.640   0.910   2.153
 2472SOL    HW110422   4.703   0.948   2.085
 2472SOL    HW210423   4.680   0.827   2.192
 2473SOL     OW10424   4.096   1.288   3.352
 2473SOL    HW110425   4.083   1.381   3.318
 2473SOL    HW210426   4.012   1.236   3.339
 2474SOL     OW10427   4.763   1.098   2.558
 2474SOL    HW110428   4.693   1.051   2.612
 2474SOL    HW210429   4.822   1.030   2.515
 2475SOL     OW10430   4.738   0.236   2.833
 2475SOL    HW110431   4.730   0.200   2.740
 2475SOL    HW210432   4.736   0.160   2.898
 2476SOL     OW10433   4.314   1.487   2.353
 2476SOL    HW110434   4.356   1.429   2.283
 2476SOL    HW210435   4.270   1.566   2.309
 2477SOL     OW10436   3.979   1.348   2.152
 2477SOL    HW110437   3.883   1.349   2.125
 2477SOL    HW210438   3.991   1.401   2.236
 2478SOL     OW10439   3.829   1.013   3.588
 2478SOL    HW110440   3.752   0.980   3.642
 2478SOL    HW210441   3.914   0.983   3.630
 2479SOL     OW10442   4.396   0.203   3.351
 2479SOL    HW110443   4.486   0.187   3.311
 2479SOL    HW210444   4.404   0.208   3.450
 2480SOL     OW10445   3.799   0.345   1.895
 2480SOL    HW110446   3.707   0.317   1.866
 2480SOL    HW210447   3.830   0.422   1.839
 2481SOL     OW10448   3.796   0.166   2.180
 2481SOL    HW110449   3.779   0.249   2.126
 2481SOL    HW210450   3.886   0.129   2.158
 2482SOL     OW10451   4.337   0.842   3.293
 2482SOL    HW110452   4.393   0.923   3.276
 2482SOL    HW210453   4.396   0.762   3.296
 2483SOL     OW10454   4.440   0.565   3.570
 2483SOL    HW110455   4.459   0.630   3.644
 2483SOL    HW210456   4.500   0.485   3.579
 2484SOL     OW10457   4.114   1.741   3.422
 2484SOL    HW110458   4.023   1.782   3.420
 2484SOL    HW210459   4.107   1.647   3.454
 2485SOL     OW10460   4.318   0.745   2.514
 2485SOL    HW110461   4.368   0.830   2.495
 2485SOL    HW210462   4.230   0.747   2.466
 2486SOL     OW10463   4.385   1.790   2.815
 2486SOL    HW110464   4.339   1.878   2.802
 2486SOL    HW210465   4.484   1.802   2.808
 2487SOL     OW10466   4.583   0.956   2.723
 2487SOL    HW110467   4.637   0.887   2.771
 2487SOL    HW210468   4.551   1.025   2.789
 2488SOL     OW10469   4.807   0.984   1.949
 2488SOL    HW110470   4.784   1.037   1.867
 2488SOL    HW210471   4.888   0.928   1.930
 2489SOL     OW10472   3.945   1.314   3.706
 2489SOL    HW110473   3.880   1.241   3.685
 2489SOL    HW210474   3.949   1.328   3.804
 2490SOL     OW10475   3.803   1.240   2.515
 2490SOL    HW110476   3.802   1.193   2.603
 2490SOL    HW210477   3.885   1.212   2.464
 2491SOL     OW10478   4.396   1.391   3.486
 2491SOL    HW110479   4.318   1.341   3.524
 2491SOL    HW210480   4.393   1.486   3.517
 2492SOL     OW10481   4.152   0.424   2.382
 2492SOL    HW110482   4.182   0.352   2.320
 2492SOL    HW210483   4.113   0.384   2.465
 2493SOL     OW10484   4.041   0.547   3.142
 2493SOL    HW110485   4.079   0.488   3.214
 2493SOL    HW210486   4.081   0.521   3.054
 2494SOL     OW10487   4.536   1.586   2.549
 2494SOL    HW110488   4.568   1.596   2.455
 2494SOL    HW210489   4.457   1.524   2.551
 2495SOL     OW10490   4.725   0.034   3.016
 2495SOL    HW110491   4.662  -0.038   2.985
 2495SOL    HW210492   4.818  -0.002   3.016
 2496SOL     OW10493   4.342   1.567   3.146
 2496SOL    HW110494   4.337   1.649   3.203
 2496SOL    HW210495   4.431   1.564   3.101
 2497SOL     OW10496   4.599   1.646   2.199
 2497SOL    HW110497   4.522   1.611   2.145
 2497SOL    HW210498   4.567   1.717   2.261
 2498SOL     OW10499   3.954   0.628   3.837
 2498SOL    HW110500   3.861   0.626   3.874
 2498SOL    HW210501   3.955   0.589   3.745
 2499SOL     OW10502   3.949   0.275   4.720
 2499SOL    HW110503   3.984   0.258   4.812
 2499SOL    HW210504   3.861   0.230   4.708
 2500SOL     OW10505   3.743   0.368   4.371
 2500SOL    HW110506   3.661   0.411   4.410
 2500SOL    HW210507   3.715   0.295   4.308
 2501SOL     OW10508   4.293   1.275   4.889
 2501SOL    HW110509   4.200   1.268   4.852
 2501SOL    HW210510   4.304   1.364   4.933
 2502SOL     OW10511   4.859   0.703   4.441
 2502SOL    HW110512   4.916   0.781   4.416
 2502SOL    HW210513   4.799   0.729   4.517
 2503SOL     OW10514   4.492   1.144   4.747
 2503SOL    HW110515   4.414   1.161   4.807
 2503SOL    HW210516   4.526   1.231   4.711
 2504SOL     OW10517   4.409   1.012   4.389
 2504SOL    HW110518   4.478   0.996   4.459
 2504SOL    HW210519   4.336   1.069   4.427
 2505SOL     OW10520   4.059   1.435   4.785
 2505SOL    HW110521   3.981   1.404   4.732
 2505SOL    HW210522   4.117   1.493   4.728
 2506SOL     OW10523   5.184   1.505   5.063
 2506SOL    HW110524   5.208   1.599   5.089
 2506SOL    HW210525   5.168   1.451   5.145
 2507SOL     OW10526   3.955   1.713   4.207
 2507SOL    HW110527   3.989   1.790   4.261
 2507SOL    HW210528   3.999   1.713   4.117
 2508SOL     OW10529   3.954   1.434   4.262
 2508SOL    HW110530   3.928   1.530   4.262
 2508SOL    HW210531   3.883   1.380   4.307
 2509SOL     OW10532   3.964   1.091   4.610
 2509SOL    HW110533   3.978   1.007   4.662
 2509SOL    HW210534   3.909   1.155   4.665
 2510SOL     OW10535   4.330   0.964   3.847
 2510SOL    HW110536   4.337   1.048   3.793
 2510SOL    HW210537   4.376   0.977   3.935
 2511SOL     OW10538   3.846   0.643   4.287
 2511SOL    HW110539   3.801   0.555   4.304
 2511SOL    HW210540   3.845   0.697   4.371
 2512SOL     OW10541   3.751   1.596   3.841
 2512SOL    HW110542   3.732   1.500   3.862
 2512SOL    HW210543   3.718   1.654   3.916
 2513SOL     OW10544   4.337   1.365   4.450
 2513SOL    HW110545   4.288   1.278   4.459
 2513SOL    HW210546   4.314   1.408   4.363
 2514SOL     OW10547   4.533   0.004   4.226
 2514SOL    HW110548   4.573   0.095   4.217
 2514SOL    HW210549   4.433   0.012   4.232
 2515SOL     OW10550   3.921   0.976   4.988
 2515SOL    HW110551   4.010   0.931   4.974
 2515SOL    HW210552   3.848   0.911   4.969
 2516SOL     OW10553   4.322   0.729   3.994
 2516SOL    HW110554   4.346   0.798   3.926
 2516SOL    HW210555   4.244   0.762   4.048
 2517SOL     OW10556   4.765   0.701   4.153
 2517SOL    HW110557   4.791   0.697   4.249
 2517SOL    HW210558   4.680   0.650   4.139
 2518SOL     OW10559   3.800   0.811   4.513
 2518SOL    HW110560   3.899   0.799   4.522
 2518SOL    HW210561   3.776   0.906   4.534
 2519SOL     OW10562   4.589   0.348   3.919
 2519SOL    HW110563   4.648   0.411   3.870
 2519SOL    HW210564   4.608   0.254   3.890
 2520SOL     OW10565   4.274   0.196   4.609
 2520SOL    HW110566   4.269   0.191   4.709
 2520SOL    HW210567   4.276   0.292   4.580
 2521SOL     OW10568   4.732   1.456   4.201
 2521SOL    HW110569   4.686   1.528   4.149
 2521SOL    HW210570   4.728   1.476   4.299
 2522SOL     OW10571   4.075   1.801   4.577
 2522SOL    HW110572   4.125   1.715   4.583
 2522SOL    HW210573   4.140   1.878   4.574
 2523SOL     OW10574   4.045   0.943   3.966
 2523SOL    HW110575   4.127   0.982   3.924
 2523SOL    HW210576   4.018   0.861   3.917
 2524SOL     OW10577   4.835   1.776   3.961
 2524SOL    HW110578   4.775   1.714   4.011
 2524SOL    HW210579   4.866   1.732   3.876
 2525SOL     OW10580   4.188   1.743   4.047
 2525SOL    HW110581   4.221   1.782   4.133
 2525SOL    HW210582   4.264   1.736   3.982
 2526SOL     OW10583   3.973   1.785   4.965
 2526SOL    HW110584   4.030   1.720   5.015
 2526SOL    HW210585   3.957   1.752   4.872
 2527SOL     OW10586   4.664   1.698   4.628
 2527SOL    HW110587   4.744   1.641   4.649
 2527SOL    HW210588   4.615   1.658   4.551
 2528SOL     OW10589   4.106   0.700   4.204
 2528SOL    HW110590   4.151   0.610   4.201
 2528SOL    HW210591   4.012   0.689   4.237
 2529SOL     OW10592   4.338   0.122   3.841
 2529SOL    HW110593   4.436   0.100   3.848
 2529SOL    HW210594   4.307   0.105   3.748
 2530SOL     OW10595   4.527   1.402   4.648
 2530SOL    HW110596   4.617   1.416   4.606
 2530SOL    HW210597   4.456   1.404   4.577
 2531SOL     OW10598   4.646   0.503   4.623
 2531SOL    HW110599   4.621   0.494   4.527
 2531SOL    HW210600   4.694   0.421   4.654
 2532SOL     OW10601   4.263   0.064   4.236
 2532SOL    HW110602   4.182   0.065   4.294
 2532SOL    HW210603   4.266   0.147   4.181
 2533SOL     OW10604   4.021   0.035   3.895
 2533SOL    HW110605   4.070   0.119   3.874
 2533SOL    HW210606   4.083  -0.030   3.940
 2534SOL     OW10607   4.659   0.236   4.204
 2534SOL    HW110608   4.611   0.277   4.126
 2534SOL    HW210609   4.758   0.234   4.185
 2535SOL     OW10610   4.951   1.570   4.517
 2535SOL    HW110611   4.972   1.644   4.452
 2535SOL    HW210612   5.019   1.570   4.590
 2536SOL     OW10613   4.183   1.152   4.465
 2536SOL    HW110614   4.112   1.125   4.530
 2536SOL    HW210615   4.157   1.124   4.372
 2537SOL     OW10616   4.995   1.797   4.315
 2537SOL    HW110617   5.039   1.861   4.251
 2537SOL    HW210618   4.945   1.849   4.385
 2538SOL     OW10619   4.756   0.549   3.740
 2538SOL    HW110620   4.715   0.631   3.701
 2538SOL    HW210621   4.820   0.575   3.813
 2539SOL     OW10622   4.590   0.454   4.366
 2539SOL    HW110623   4.558   0.526   4.304
 2539SOL    HW210624   4.614   0.373   4.313
 2540SOL     OW10625   4.741   0.039   4.477
 2540SOL    HW110626   4.669   0.044   4.408
 2540SOL    HW210627   4.717  -0.030   4.546
 2541SOL     OW10628   4.212   1.385   3.898
 2541SOL    HW110629   4.125   1.370   3.945
 2541SOL    HW210630   4.195   1.411   3.803
 2542SOL     OW10631   4.251   0.256   4.052
 2542SOL    HW110632   4.278   0.197   3.977
 2542SOL    HW210633   4.251   0.351   4.021
 2543SOL     OW10634   4.835   1.195   4.824
 2543SOL    HW110635   4.795   1.239   4.905
 2543SOL    HW210636   4.794   1.232   4.741
 2544SOL     OW10637   4.429   1.050   4.092
 2544SOL    HW110638   4.415   1.057   4.191
 2544SOL    HW210639   4.513   0.999   4.074
 2545SOL     OW10640   4.134   0.813   4.975
 2545SOL    HW110641   4.220   0.825   5.025
 2545SOL    HW210642   4.092   0.726   5.002
 2546SOL     OW10643   4.091   1.100   4.225
 2546SOL    HW110644   4.084   1.183   4.169
 2546SOL    HW210645   4.095   1.020   4.165
 2547SOL     OW10646   4.290   0.537   4.589
 2547SOL    HW110647   4.302   0.603   4.515
 2547SOL    HW210648   4.336   0.571   4.672
 2548SOL     OW10649   4.976   1.348   4.112
 2548SOL    HW110650   5.026   1.425   4.152
 2548SOL    HW210651   4.881   1.350   4.144
 2549SOL     OW10652   4.297   0.870   4.753
 2549SOL    HW110653   4.341   0.959   4.744
 2549SOL    HW210654   4.234   0.870   4.830
 2550SOL     OW10655   5.084   0.862   4.769
 2550SOL    HW110656   5.009   0.862   4.703
 2550SOL    HW210657   5.121   0.770   4.778
 2551SOL     OW10658   4.933   0.525   3.999
 2551SOL    HW110659   4.946   0.441   4.053
 2551SOL    HW210660   4.904   0.599   4.059
 2552SOL     OW10661   4.031   0.213   4.955
 2552SOL    HW110662   4.008   0.250   5.045
 2552SOL    HW210663   4.001   0.118   4.949
 2553SOL     OW10664   3.761   1.310   5.006
 2553SOL    HW110665   3.814   1.261   5.074
 2553SOL    HW210666   3.783   1.408   5.011
 2554SOL     OW10667   4.456   0.634   4.788
 2554SOL    HW110668   4.515   0.608   4.712
 2554SOL    HW210669   4.428   0.730   4.777
 2555SOL     OW10670   4.031   0.063   4.342
 2555SOL    HW110671   4.020   0.157   4.375
 2555SOL    HW210672   4.026   0.000   4.419
 2556SOL     OW10673   4.747   0.766   4.690
 2556SOL    HW110674   4.762   0.787   4.786
 2556SOL    HW210675   4.717   0.671   4.681
 2557SOL     OW10676   5.264   0.274   3.849
 2557SOL    HW110677   5.203   0.199   3.872
 2557SOL    HW210678   5.286   0.326   3.932
 2558SOL     OW10679   4.792   1.333   4.573
 2558SOL    HW110680   4.799   1.249   4.518
 2558SOL    HW210681   4.854   1.402   4.537
 2559SOL     OW10682   4.043   0.810   4.673
 2559SOL    HW110683   4.136   0.846   4.678
 2559SOL    HW210684   4.037   0.725   4.725
 2560SOL     OW10685   4.063   0.509   4.730
 2560SOL    HW110686   4.011   0.426   4.713
 2560SOL    HW210687   4.140   0.514   4.666
 2561SOL     OW10688   3.732   1.326   3.924
 2561SOL    HW110689   3.639   1.347   3.893
 2561SOL    HW210690   3.742   1.227   3.937
 2562SOL     OW10691   3.812   1.801   4.651
 2562SOL    HW110692   3.770   1.715   4.624
 2562SOL    HW210693   3.906   1.804   4.617
 2563SOL     OW10694   4.228   1.568   4.634
 2563SOL    HW110695   4.294   1.642   4.643
 2563SOL    HW210696   4.272   1.489   4.592
 2564SOL     OW10697   4.726   0.796   4.962
 2564SOL    HW110698   4.767   0.764   5.048
 2564SOL    HW210699   4.630   0.769   4.959
 2565SOL     OW10700   3.764   0.544   4.838
 2565SOL    HW110701   3.849   0.511   4.797
 2565SOL    HW210702   3.777   0.559   4.936
 2566SOL     OW10703   4.539   0.572   4.049
 2566SOL    HW110704   4.546   0.483   4.003
 2566SOL    HW210705   4.445   0.606   4.041
 2567SOL     OW10706   4.395   0.464   4.993
 2567SOL    HW110707   4.361   0.375   4.963
 2567SOL    HW210708   4.421   0.518   4.913
 2568SOL     OW10709   4.197   0.500   3.915
 2568SOL    HW110710   4.258   0.580   3.919
 2568SOL    HW210711   4.102   0.531   3.922
 2569SOL     OW10712   3.883   1.137   5.190
 2569SOL    HW110713   3.905   1.076   5.266
 2569SOL    HW210714   3.893   1.088   5.104
 2570SOL     OW10715   4.976   1.731   4.852
 2570SOL    HW110716   5.060   1.736   4.798
 2570SOL    HW210717   4.953   1.635   4.870
 2571SOL     OW10718   3.807   1.258   4.746
 2571SOL    HW110719   3.802   1.257   4.846
 2571SOL    HW210720   3.724   1.217   4.708
 2572SOL     OW10721   4.396   1.616   3.878
 2572SOL    HW110722   4.405   1.626   3.779
 2572SOL    HW210723   4.356   1.527   3.899
 2573SOL     OW10724   3.987   0.326   4.444
 2573SOL    HW110725   3.908   0.377   4.410
 2573SOL    HW210726   3.978   0.311   4.542
 2574SOL     OW10727   4.546   1.002   5.096
 2574SOL    HW110728   4.586   1.001   5.004
 2574SOL    HW210729   4.556   1.094   5.136
 2575SOL     OW10730   4.640   0.910   4.015
 2575SOL    HW110731   4.703   0.948   3.947
 2575SOL    HW210732   4.680   0.827   4.054
 2576SOL     OW10733   4.763   1.098   4.420
 2576SOL    HW110734   4.693   1.051   4.474
 2576SOL    HW210735   4.822   1.030   4.377
 2577SOL     OW10736   4.738   0.236   4.695
 2577SOL    HW110737   4.730   0.200   4.602
 2577SOL    HW210738   4.736   0.160   4.760
 2578SOL     OW10739   4.314   1.487   4.215
 2578SOL    HW110740   4.356   1.429   4.145
 2578SOL    HW210741   4.270   1.566   4.171
 2579SOL     OW10742   3.979   1.348   4.014
 2579SOL    HW110743   3.883   1.349   3.987
 2579SOL    HW210744   3.991   1.401   4.098
 2580SOL     OW10745   3.799   0.345   3.757
 2580SOL    HW110746   3.707   0.317   3.728
 2580SOL    HW210747   3.830   0.422   3.701
 2581SOL     OW10748   3.796   0.166   4.042
 2581SOL    HW110749   3.779   0.249   3.988
 2581SOL    HW210750   3.886   0.129   4.020
 2582SOL     OW10751   4.318   0.745   4.376
 2582SOL    HW110752   4.368   0.830   4.357
 2582SOL    HW210753   4.230   0.747   4.328
 2583SOL     OW10754   4.583   1.374   3.740
 2583SOL    HW110755   4.537   1.389   3.828
 2583SOL    HW210756   4.627   1.459   3.710
 2584SOL     OW10757   4.385   1.790   4.677
 2584SOL    HW110758   4.339   1.878   4.664
 2584SOL    HW210759   4.484   1.802   4.670
 2585SOL     OW10760   4.583   0.956   4.585
 2585SOL    HW110761   4.637   0.887   4.633
 2585SOL    HW210762   4.551   1.025   4.651
 2586SOL     OW10763   4.807   0.984   3.811
 2586SOL    HW110764   4.784   1.037   3.729
 2586SOL    HW210765   4.888   0.928   3.792
 2587SOL     OW10766   3.803   1.240   4.377
 2587SOL    HW110767   3.802   1.193   4.465
 2587SOL    HW210768   3.885   1.212   4.326
 2588SOL     OW10769   4.152   0.424   4.244
 2588SOL    HW110770   4.182   0.352   4.182
 2588SOL    HW210771   4.113   0.384   4.327
 2589SOL     OW10772   4.536   1.586   4.411
 2589SOL    HW110773   4.568   1.596   4.317
 2589SOL    HW210774   4.457   1.524   4.413
 2590SOL     OW10775   4.725   0.034   4.878
 2590SOL    HW110776   4.662  -0.038   4.847
 2590SOL    HW210777   4.818  -0.002   4.878
 2591SOL     OW10778   4.494   1.330   4.025
 2591SOL    HW110779   4.448   1.243   4.042
 2591SOL    HW210780   4.585   1.327   4.066
 2592SOL     OW10781   3.763   1.077   4.024
 2592SOL    HW110782   3.862   1.066   4.015
 2592SOL    HW210783   3.723   0.991   4.056
 2593SOL     OW10784   4.599   1.646   4.061
 2593SOL    HW110785   4.522   1.611   4.007
 2593SOL    HW210786   4.567   1.717   4.123
 2594SOL     OW10787   3.954   2.490   0.113
 2594SOL    HW110788   3.861   2.488   0.150
 2594SOL    HW210789   3.955   2.451   0.021
 2595SOL     OW10790   3.949   2.137   0.996
 2595SOL    HW110791   3.984   2.120   1.088
 2595SOL    HW210792   3.861   2.092   0.984
 2596SOL     OW10793   3.743   2.230   0.647
 2596SOL    HW110794   3.661   2.273   0.686
 2596SOL    HW210795   3.715   2.157   0.584
 2597SOL     OW10796   4.293   3.137   1.165
 2597SOL    HW110797   4.200   3.130   1.128
 2597SOL    HW210798   4.304   3.226   1.209
 2598SOL     OW10799   4.859   2.565   0.717
 2598SOL    HW110800   4.916   2.643   0.692
 2598SOL    HW210801   4.799   2.591   0.793
 2599SOL     OW10802   4.492   3.006   1.023
 2599SOL    HW110803   4.414   3.023   1.083
 2599SOL    HW210804   4.526   3.093   0.987
 2600SOL     OW10805   4.574   2.660   1.823
 2600SOL    HW110806   4.570   2.736   1.888
 2600SOL    HW210807   4.596   2.696   1.732
 2601SOL     OW10808   4.409   2.874   0.665
 2601SOL    HW110809   4.478   2.858   0.735
 2601SOL    HW210810   4.336   2.931   0.703
 2602SOL     OW10811   4.410   3.023   1.803
 2602SOL    HW110812   4.470   3.102   1.817
 2602SOL    HW210813   4.324   3.054   1.762
 2603SOL     OW10814   4.059   3.297   1.061
 2603SOL    HW110815   3.981   3.266   1.008
 2603SOL    HW210816   4.117   3.355   1.004
 2604SOL     OW10817   4.162   2.254   1.499
 2604SOL    HW110818   4.244   2.198   1.508
 2604SOL    HW210819   4.081   2.196   1.503
 2605SOL     OW10820   3.955   3.575   0.483
 2605SOL    HW110821   3.989   3.652   0.537
 2605SOL    HW210822   3.999   3.575   0.393
 2606SOL     OW10823   4.851   3.203   1.690
 2606SOL    HW110824   4.898   3.203   1.778
 2606SOL    HW210825   4.803   3.116   1.679
 2607SOL     OW10826   3.954   3.296   0.538
 2607SOL    HW110827   3.928   3.392   0.538
 2607SOL    HW210828   3.883   3.242   0.583
 2608SOL     OW10829   3.964   2.953   0.886
 2608SOL    HW110830   3.978   2.869   0.938
 2608SOL    HW210831   3.909   3.017   0.941
 2609SOL     OW10832   4.344   3.648   1.439
 2609SOL    HW110833   4.252   3.631   1.474
 2609SOL    HW210834   4.372   3.740   1.465
 2610SOL     OW10835   4.330   2.826   0.123
 2610SOL    HW110836   4.337   2.910   0.069
 2610SOL    HW210837   4.376   2.839   0.211
 2611SOL     OW10838   3.846   2.505   0.563
 2611SOL    HW110839   3.801   2.417   0.580
 2611SOL    HW210840   3.845   2.559   0.647
 2612SOL     OW10841   3.751   3.458   0.117
 2612SOL    HW110842   3.732   3.362   0.138
 2612SOL    HW210843   3.718   3.516   0.192
 2613SOL     OW10844   4.337   3.227   0.726
 2613SOL    HW110845   4.288   3.140   0.735
 2613SOL    HW210846   4.314   3.270   0.639
 2614SOL     OW10847   4.533   1.866   0.502
 2614SOL    HW110848   4.573   1.957   0.493
 2614SOL    HW210849   4.433   1.874   0.508
 2615SOL     OW10850   4.322   2.591   0.270
 2615SOL    HW110851   4.346   2.660   0.202
 2615SOL    HW210852   4.244   2.624   0.324
 2616SOL     OW10853   4.531   2.467   1.465
 2616SOL    HW110854   4.484   2.464   1.554
 2616SOL    HW210855   4.480   2.412   1.399
 2617SOL     OW10856   4.697   2.752   1.572
 2617SOL    HW110857   4.743   2.668   1.543
 2617SOL    HW210858   4.641   2.786   1.497
 2618SOL     OW10859   4.715   2.272   1.242
 2618SOL    HW110860   4.638   2.306   1.296
 2618SOL    HW210861   4.681   2.221   1.163
 2619SOL     OW10862   4.765   2.563   0.429
 2619SOL    HW110863   4.791   2.559   0.525
 2619SOL    HW210864   4.680   2.512   0.415
 2620SOL     OW10865   3.800   2.673   0.789
 2620SOL    HW110866   3.899   2.661   0.798
 2620SOL    HW210867   3.776   2.768   0.810
 2621SOL     OW10868   3.854   3.683   1.571
 2621SOL    HW110869   3.844   3.668   1.670
 2621SOL    HW210870   3.768   3.719   1.535
 2622SOL     OW10871   4.589   2.210   0.195
 2622SOL    HW110872   4.648   2.273   0.146
 2622SOL    HW210873   4.608   2.116   0.166
 2623SOL     OW10874   4.274   2.058   0.885
 2623SOL    HW110875   4.269   2.053   0.985
 2623SOL    HW210876   4.276   2.154   0.856
 2624SOL     OW10877   4.732   3.318   0.477
 2624SOL    HW110878   4.686   3.390   0.425
 2624SOL    HW210879   4.728   3.338   0.575
 2625SOL     OW10880   4.075   3.663   0.853
 2625SOL    HW110881   4.125   3.577   0.859
 2625SOL    HW210882   4.140   3.740   0.850
 2626SOL     OW10883   4.951   3.412   1.506
 2626SOL    HW110884   4.957   3.335   1.570
 2626SOL    HW210885   4.899   3.386   1.426
 2627SOL     OW10886   4.045   2.805   0.242
 2627SOL    HW110887   4.127   2.844   0.200
 2627SOL    HW210888   4.018   2.723   0.193
 2628SOL     OW10889   4.835   3.638   0.237
 2628SOL    HW110890   4.775   3.576   0.287
 2628SOL    HW210891   4.866   3.594   0.152
 2629SOL     OW10892   4.188   3.605   0.323
 2629SOL    HW110893   4.221   3.644   0.409
 2629SOL    HW210894   4.264   3.598   0.258
 2630SOL     OW10895   3.973   3.647   1.241
 2630SOL    HW110896   4.030   3.582   1.291
 2630SOL    HW210897   3.957   3.614   1.148
 2631SOL     OW10898   4.664   3.560   0.904
 2631SOL    HW110899   4.744   3.503   0.925
 2631SOL    HW210900   4.615   3.520   0.827
 2632SOL     OW10901   4.106   2.562   0.480
 2632SOL    HW110902   4.151   2.472   0.477
 2632SOL    HW210903   4.012   2.551   0.513
 2633SOL     OW10904   4.338   1.984   0.117
 2633SOL    HW110905   4.436   1.962   0.124
 2633SOL    HW210906   4.307   1.967   0.024
 2634SOL     OW10907   4.505   2.126   1.749
 2634SOL    HW110908   4.572   2.065   1.792
 2634SOL    HW210909   4.432   2.145   1.814
 2635SOL     OW10910   4.612   3.376   1.195
 2635SOL    HW110911   4.589   3.351   1.101
 2635SOL    HW210912   4.673   3.307   1.234
 2636SOL     OW10913   4.527   3.264   0.924
 2636SOL    HW110914   4.617   3.278   0.882
 2636SOL    HW210915   4.456   3.266   0.853
 2637SOL     OW10916   4.646   2.365   0.899
 2637SOL    HW110917   4.621   2.356   0.803
 2637SOL    HW210918   4.694   2.283   0.930
 2638SOL     OW10919   4.263   1.926   0.512
 2638SOL    HW110920   4.182   1.927   0.570
 2638SOL    HW210921   4.266   2.009   0.457
 2639SOL     OW10922   4.021   1.897   0.171
 2639SOL    HW110923   4.070   1.981   0.150
 2639SOL    HW210924   4.083   1.832   0.216
 2640SOL     OW10925   4.659   2.098   0.480
 2640SOL    HW110926   4.611   2.139   0.402
 2640SOL    HW210927   4.758   2.096   0.461
 2641SOL     OW10928   4.800   2.545   1.464
 2641SOL    HW110929   4.720   2.484   1.467
 2641SOL    HW210930   4.881   2.492   1.440
 2642SOL     OW10931   4.951   3.432   0.793
 2642SOL    HW110932   4.972   3.506   0.728
 2642SOL    HW210933   5.019   3.432   0.866
 2643SOL     OW10934   4.183   3.014   0.741
 2643SOL    HW110935   4.112   2.987   0.806
 2643SOL    HW210936   4.157   2.986   0.648
 2644SOL     OW10937   4.995   3.659   0.591
 2644SOL    HW110938   5.039   3.723   0.527
 2644SOL    HW210939   4.945   3.711   0.661
 2645SOL     OW10940   4.756   2.411   0.016
 2645SOL    HW110941   4.715   2.493  -0.023
 2645SOL    HW210942   4.820   2.437   0.089
 2646SOL     OW10943   4.285   2.084   1.147
 2646SOL    HW110944   4.323   2.000   1.184
 2646SOL    HW210945   4.197   2.103   1.191
 2647SOL     OW10946   4.590   2.316   0.642
 2647SOL    HW110947   4.558   2.388   0.580
 2647SOL    HW210948   4.614   2.235   0.589
 2648SOL     OW10949   4.741   1.901   0.753
 2648SOL    HW110950   4.669   1.906   0.684
 2648SOL    HW210951   4.717   1.832   0.822
 2649SOL     OW10952   4.212   3.247   0.174
 2649SOL    HW110953   4.125   3.232   0.221
 2649SOL    HW210954   4.195   3.273   0.079
 2650SOL     OW10955   4.251   2.118   0.328
 2650SOL    HW110956   4.278   2.059   0.253
 2650SOL    HW210957   4.251   2.213   0.297
 2651SOL     OW10958   4.788   3.209   1.340
 2651SOL    HW110959   4.708   3.186   1.395
 2651SOL    HW210960   4.871   3.183   1.389
 2652SOL     OW10961   4.835   3.057   1.100
 2652SOL    HW110962   4.795   3.101   1.181
 2652SOL    HW210963   4.794   3.094   1.017
 2653SOL     OW10964   4.639   1.951   1.402
 2653SOL    HW110965   4.664   1.931   1.307
 2653SOL    HW210966   4.711   2.007   1.444
 2654SOL     OW10967   4.704   2.978   1.719
 2654SOL    HW110968   4.605   2.984   1.729
 2654SOL    HW210969   4.727   2.898   1.663
 2655SOL     OW10970   4.429   2.912   0.368
 2655SOL    HW110971   4.415   2.919   0.467
 2655SOL    HW210972   4.513   2.861   0.350
 2656SOL     OW10973   3.788   3.426   1.331
 2656SOL    HW110974   3.742   3.508   1.297
 2656SOL    HW210975   3.886   3.445   1.340
 2657SOL     OW10976   4.091   2.962   0.501
 2657SOL    HW110977   4.084   3.045   0.445
 2657SOL    HW210978   4.095   2.882   0.441
 2658SOL     OW10979   4.290   2.399   0.865
 2658SOL    HW110980   4.302   2.465   0.791
 2658SOL    HW210981   4.336   2.433   0.948
 2659SOL     OW10982   4.976   3.210   0.388
 2659SOL    HW110983   5.026   3.287   0.428
 2659SOL    HW210984   4.881   3.212   0.420
 2660SOL     OW10985   4.078   3.372   1.329
 2660SOL    HW110986   4.057   3.328   1.242
 2660SOL    HW210987   4.175   3.398   1.332
 2661SOL     OW10988   4.737   1.967   1.770
 2661SOL    HW110989   4.743   2.052   1.718
 2661SOL    HW210990   4.769   1.891   1.713
 2662SOL     OW10991   4.228   1.912   1.740
 2662SOL    HW110992   4.186   1.855   1.670
 2662SOL    HW210993   4.162   1.981   1.772
 2663SOL     OW10994   4.297   2.732   1.029
 2663SOL    HW110995   4.341   2.821   1.020
 2663SOL    HW210996   4.234   2.732   1.106
 2664SOL     OW10997   5.084   2.724   1.045
 2664SOL    HW110998   5.009   2.724   0.979
 2664SOL    HW210999   5.121   2.632   1.054
 2665SOL     OW11000   4.933   2.387   0.275
 2665SOL    HW111001   4.946   2.303   0.329
 2665SOL    HW211002   4.904   2.461   0.335
 2666SOL     OW11003   4.031   2.075   1.231
 2666SOL    HW111004   4.008   2.112   1.321
 2666SOL    HW211005   4.001   1.980   1.225
 2667SOL     OW11006   4.456   2.496   1.064
 2667SOL    HW111007   4.515   2.470   0.988
 2667SOL    HW211008   4.428   2.592   1.053
 2668SOL     OW11009   4.031   1.925   0.618
 2668SOL    HW111010   4.020   2.019   0.651
 2668SOL    HW211011   4.026   1.862   0.695
 2669SOL     OW11012   4.747   2.628   0.966
 2669SOL    HW111013   4.762   2.649   1.062
 2669SOL    HW211014   4.717   2.533   0.957
 2670SOL     OW11015   4.704   3.435   1.700
 2670SOL    HW111016   4.684   3.479   1.612
 2670SOL    HW211017   4.743   3.344   1.684
 2671SOL     OW11018   4.792   3.195   0.849
 2671SOL    HW111019   4.799   3.111   0.794
 2671SOL    HW211020   4.854   3.264   0.813
 2672SOL     OW11021   4.043   2.672   0.949
 2672SOL    HW111022   4.136   2.708   0.954
 2672SOL    HW211023   4.037   2.587   1.001
 2673SOL     OW11024   4.063   2.371   1.006
 2673SOL    HW111025   4.011   2.288   0.989
 2673SOL    HW211026   4.140   2.376   0.942
 2674SOL     OW11027   4.862   2.242   1.678
 2674SOL    HW111028   4.817   2.305   1.742
 2674SOL    HW211029   4.955   2.273   1.661
 2675SOL     OW11030   4.884   2.069   1.477
 2675SOL    HW111031   4.884   2.133   1.554
 2675SOL    HW211032   4.912   2.117   1.394
 2676SOL     OW11033   3.732   3.188   0.200
 2676SOL    HW111034   3.639   3.209   0.169
 2676SOL    HW211035   3.742   3.089   0.213
 2677SOL     OW11036   3.812   3.663   0.927
 2677SOL    HW111037   3.770   3.577   0.900
 2677SOL    HW211038   3.906   3.666   0.893
 2678SOL     OW11039   4.228   3.430   0.910
 2678SOL    HW111040   4.294   3.504   0.919
 2678SOL    HW211041   4.272   3.351   0.868
 2679SOL     OW11042   4.726   2.658   1.238
 2679SOL    HW111043   4.767   2.626   1.324
 2679SOL    HW211044   4.630   2.631   1.235
 2680SOL     OW11045   4.539   2.434   0.325
 2680SOL    HW111046   4.546   2.345   0.279
 2680SOL    HW211047   4.445   2.468   0.317
 2681SOL     OW11048   3.976   3.426   1.744
 2681SOL    HW111049   3.946   3.483   1.820
 2681SOL    HW211050   3.969   3.329   1.770
 2682SOL     OW11051   4.395   2.326   1.269
 2682SOL    HW111052   4.361   2.237   1.239
 2682SOL    HW211053   4.421   2.380   1.189
 2683SOL     OW11054   4.654   3.540   1.465
 2683SOL    HW111055   4.630   3.522   1.370
 2683SOL    HW211056   4.684   3.634   1.475
 2684SOL     OW11057   4.197   2.362   0.191
 2684SOL    HW111058   4.258   2.442   0.195
 2684SOL    HW211059   4.102   2.393   0.198
 2685SOL     OW11060   4.976   3.593   1.128
 2685SOL    HW111061   5.060   3.598   1.074
 2685SOL    HW211062   4.953   3.497   1.146
 2686SOL     OW11063   3.807   3.120   1.022
 2686SOL    HW111064   3.802   3.119   1.122
 2686SOL    HW211065   3.724   3.079   0.984
 2687SOL     OW11066   4.412   3.524   1.716
 2687SOL    HW111067   4.356   3.605   1.725
 2687SOL    HW211068   4.464   3.528   1.630
 2688SOL     OW11069   4.627   1.948   0.133
 2688SOL    HW111070   4.678   1.949   0.047
 2688SOL    HW211071   4.683   1.906   0.204
 2689SOL     OW11072   3.854   3.656   1.851
 2689SOL    HW111073   3.813   3.582   1.904
 2689SOL    HW211074   3.918   3.707   1.909
 2690SOL     OW11075   4.554   3.135   1.422
 2690SOL    HW111076   4.549   3.168   1.517
 2690SOL    HW211077   4.468   3.154   1.376
 2691SOL     OW11078   4.396   3.478   0.154
 2691SOL    HW111079   4.405   3.488   0.055
 2691SOL    HW211080   4.356   3.389   0.175
 2692SOL     OW11081   3.987   2.188   0.720
 2692SOL    HW111082   3.908   2.239   0.686
 2692SOL    HW211083   3.978   2.173   0.818
 2693SOL     OW11084   4.546   2.864   1.372
 2693SOL    HW111085   4.586   2.863   1.280
 2693SOL    HW211086   4.556   2.956   1.412
 2694SOL     OW11087   4.640   2.772   0.291
 2694SOL    HW111088   4.703   2.810   0.223
 2694SOL    HW211089   4.680   2.689   0.330
 2695SOL     OW11090   4.763   2.960   0.696
 2695SOL    HW111091   4.693   2.913   0.750
 2695SOL    HW211092   4.822   2.892   0.653
 2696SOL     OW11093   4.738   2.098   0.971
 2696SOL    HW111094   4.730   2.062   0.878
 2696SOL    HW211095   4.736   2.022   1.036
 2697SOL     OW11096   4.314   3.349   0.491
 2697SOL    HW111097   4.356   3.291   0.421
 2697SOL    HW211098   4.270   3.428   0.447
 2698SOL     OW11099   3.979   3.210   0.290
 2698SOL    HW111100   3.883   3.211   0.263
 2698SOL    HW211101   3.991   3.263   0.374
 2699SOL     OW11102   4.396   2.065   1.489
 2699SOL    HW111103   4.486   2.049   1.449
 2699SOL    HW211104   4.404   2.070   1.588
 2700SOL     OW11105   3.796   2.028   0.318
 2700SOL    HW111106   3.779   2.111   0.264
 2700SOL    HW211107   3.886   1.991   0.296
 2701SOL     OW11108   4.337   2.704   1.431
 2701SOL    HW111109   4.393   2.785   1.414
 2701SOL    HW211110   4.396   2.624   1.434
 2702SOL     OW11111   4.440   2.427   1.708
 2702SOL    HW111112   4.459   2.492   1.782
 2702SOL    HW211113   4.500   2.347   1.717
 2703SOL     OW11114   4.114   3.603   1.560
 2703SOL    HW111115   4.023   3.644   1.558
 2703SOL    HW211116   4.107   3.509   1.592
 2704SOL     OW11117   4.318   2.607   0.652
 2704SOL    HW111118   4.368   2.692   0.633
 2704SOL    HW211119   4.230   2.609   0.604
 2705SOL     OW11120   4.583   3.236   0.016
 2705SOL    HW111121   4.537   3.251   0.104
 2705SOL    HW211122   4.627   3.321  -0.014
 2706SOL     OW11123   4.385   3.652   0.953
 2706SOL    HW111124   4.339   3.740   0.940
 2706SOL    HW211125   4.484   3.664   0.946
 2707SOL     OW11126   4.583   2.818   0.861
 2707SOL    HW111127   4.637   2.749   0.909
 2707SOL    HW211128   4.551   2.887   0.927
 2708SOL     OW11129   4.807   2.846   0.087
 2708SOL    HW111130   4.784   2.899   0.005
 2708SOL    HW211131   4.888   2.790   0.068
 2709SOL     OW11132   3.803   3.102   0.653
 2709SOL    HW111133   3.802   3.055   0.741
 2709SOL    HW211134   3.885   3.074   0.602
 2710SOL     OW11135   4.396   3.253   1.624
 2710SOL    HW111136   4.318   3.203   1.662
 2710SOL    HW211137   4.393   3.348   1.655
 2711SOL     OW11138   4.152   2.286   0.520
 2711SOL    HW111139   4.182   2.214   0.458
 2711SOL    HW211140   4.113   2.246   0.603
 2712SOL     OW11141   4.536   3.448   0.687
 2712SOL    HW111142   4.568   3.458   0.593
 2712SOL    HW211143   4.457   3.386   0.689
 2713SOL     OW11144   4.725   1.896   1.154
 2713SOL    HW111145   4.662   1.824   1.123
 2713SOL    HW211146   4.818   1.860   1.154
 2714SOL     OW11147   4.494   3.192   0.301
 2714SOL    HW111148   4.448   3.105   0.318
 2714SOL    HW211149   4.585   3.189   0.342
 2715SOL     OW11150   4.342   3.429   1.284
 2715SOL    HW111151   4.337   3.511   1.341
 2715SOL    HW211152   4.431   3.426   1.239
 2716SOL     OW11153   4.599   3.508   0.337
 2716SOL    HW111154   4.522   3.473   0.283
 2716SOL    HW211155   4.567   3.579   0.399
 2717SOL     OW11156   4.293   3.137   3.027
 2717SOL    HW111157   4.200   3.130   2.990
 2717SOL    HW211158   4.304   3.226   3.071
 2718SOL     OW11159   4.492   3.006   2.885
 2718SOL    HW111160   4.414   3.023   2.945
 2718SOL    HW211161   4.526   3.093   2.849
 2719SOL     OW11162   4.574   2.660   3.685
 2719SOL    HW111163   4.570   2.736   3.750
 2719SOL    HW211164   4.596   2.696   3.594
 2720SOL     OW11165   4.409   2.874   2.527
 2720SOL    HW111166   4.478   2.858   2.597
 2720SOL    HW211167   4.336   2.931   2.565
 2721SOL     OW11168   4.410   3.023   3.665
 2721SOL    HW111169   4.470   3.102   3.679
 2721SOL    HW211170   4.324   3.054   3.624
 2722SOL     OW11171   4.059   3.297   2.923
 2722SOL    HW111172   3.981   3.266   2.870
 2722SOL    HW211173   4.117   3.355   2.866
 2723SOL     OW11174   4.162   2.254   3.361
 2723SOL    HW111175   4.244   2.198   3.370
 2723SOL    HW211176   4.081   2.196   3.365
 2724SOL     OW11177   4.851   3.203   3.552
 2724SOL    HW111178   4.898   3.203   3.640
 2724SOL    HW211179   4.803   3.116   3.541
 2725SOL     OW11180   4.344   3.648   3.301
 2725SOL    HW111181   4.252   3.631   3.336
 2725SOL    HW211182   4.372   3.740   3.327
 2726SOL     OW11183   4.330   2.826   1.985
 2726SOL    HW111184   4.337   2.910   1.931
 2726SOL    HW211185   4.376   2.839   2.073
 2727SOL     OW11186   3.837   2.599   3.459
 2727SOL    HW111187   3.925   2.586   3.504
 2727SOL    HW211188   3.824   2.696   3.437
 2728SOL     OW11189   4.337   3.227   2.588
 2728SOL    HW111190   4.288   3.140   2.597
 2728SOL    HW211191   4.314   3.270   2.501
 2729SOL     OW11192   4.533   1.866   2.364
 2729SOL    HW111193   4.573   1.957   2.355
 2729SOL    HW211194   4.433   1.874   2.370
 2730SOL     OW11195   4.041   2.113   3.663
 2730SOL    HW111196   4.112   2.184   3.669
 2730SOL    HW211197   3.953   2.152   3.691
 2731SOL     OW11198   4.322   2.591   2.132
 2731SOL    HW111199   4.346   2.660   2.064
 2731SOL    HW211200   4.244   2.624   2.186
 2732SOL     OW11201   4.531   2.467   3.327
 2732SOL    HW111202   4.484   2.464   3.416
 2732SOL    HW211203   4.480   2.412   3.261
 2733SOL     OW11204   4.697   2.752   3.434
 2733SOL    HW111205   4.743   2.668   3.405
 2733SOL    HW211206   4.641   2.786   3.359
 2734SOL     OW11207   4.715   2.272   3.104
 2734SOL    HW111208   4.638   2.306   3.158
 2734SOL    HW211209   4.681   2.221   3.025
 2735SOL     OW11210   3.854   3.683   3.433
 2735SOL    HW111211   3.844   3.668   3.532
 2735SOL    HW211212   3.768   3.719   3.397
 2736SOL     OW11213   4.589   2.210   2.057
 2736SOL    HW111214   4.648   2.273   2.008
 2736SOL    HW211215   4.608   2.116   2.028
 2737SOL     OW11216   4.274   2.058   2.747
 2737SOL    HW111217   4.269   2.053   2.847
 2737SOL    HW211218   4.276   2.154   2.718
 2738SOL     OW11219   4.732   3.318   2.339
 2738SOL    HW111220   4.686   3.390   2.287
 2738SOL    HW211221   4.728   3.338   2.437
 2739SOL     OW11222   4.075   3.663   2.715
 2739SOL    HW111223   4.125   3.577   2.721
 2739SOL    HW211224   4.140   3.740   2.712
 2740SOL     OW11225   4.951   3.412   3.368
 2740SOL    HW111226   4.957   3.335   3.432
 2740SOL    HW211227   4.899   3.386   3.288
 2741SOL     OW11228   4.185   3.128   3.589
 2741SOL    HW111229   4.135   3.129   3.503
 2741SOL    HW211230   4.122   3.110   3.665
 2742SOL     OW11231   4.835   3.638   2.099
 2742SOL    HW111232   4.775   3.576   2.149
 2742SOL    HW211233   4.866   3.594   2.014
 2743SOL     OW11234   3.926   2.147   3.360
 2743SOL    HW111235   3.846   2.207   3.347
 2743SOL    HW211236   3.916   2.098   3.446
 2744SOL     OW11237   3.973   3.647   3.103
 2744SOL    HW111238   4.030   3.582   3.153
 2744SOL    HW211239   3.957   3.614   3.010
 2745SOL     OW11240   4.338   1.984   1.979
 2745SOL    HW111241   4.436   1.962   1.986
 2745SOL    HW211242   4.307   1.967   1.886
 2746SOL     OW11243   4.505   2.126   3.611
 2746SOL    HW111244   4.572   2.065   3.654
 2746SOL    HW211245   4.432   2.145   3.676
 2747SOL     OW11246   4.527   3.264   2.786
 2747SOL    HW111247   4.617   3.278   2.744
 2747SOL    HW211248   4.456   3.266   2.715
 2748SOL     OW11249   4.646   2.365   2.761
 2748SOL    HW111250   4.621   2.356   2.665
 2748SOL    HW211251   4.694   2.283   2.792
 2749SOL     OW11252   4.263   1.926   2.374
 2749SOL    HW111253   4.182   1.927   2.432
 2749SOL    HW211254   4.266   2.009   2.319
 2750SOL     OW11255   4.800   2.545   3.326
 2750SOL    HW111256   4.720   2.484   3.329
 2750SOL    HW211257   4.881   2.492   3.302
 2751SOL     OW11258   4.951   3.432   2.655
 2751SOL    HW111259   4.972   3.506   2.590
 2751SOL    HW211260   5.019   3.432   2.728
 2752SOL     OW11261   4.995   3.659   2.453
 2752SOL    HW111262   5.039   3.723   2.389
 2752SOL    HW211263   4.945   3.711   2.523
 2753SOL     OW11264   4.756   2.411   1.878
 2753SOL    HW111265   4.715   2.493   1.839
 2753SOL    HW211266   4.820   2.437   1.951
 2754SOL     OW11267   4.285   2.084   3.009
 2754SOL    HW111268   4.323   2.000   3.046
 2754SOL    HW211269   4.197   2.103   3.053
 2755SOL     OW11270   4.741   1.901   2.615
 2755SOL    HW111271   4.669   1.906   2.546
 2755SOL    HW211272   4.717   1.832   2.684
 2756SOL     OW11273   4.212   3.247   2.036
 2756SOL    HW111274   4.125   3.232   2.083
 2756SOL    HW211275   4.195   3.273   1.941
 2757SOL     OW11276   4.788   3.209   3.202
 2757SOL    HW111277   4.708   3.186   3.257
 2757SOL    HW211278   4.871   3.183   3.251
 2758SOL     OW11279   4.835   3.057   2.962
 2758SOL    HW111280   4.795   3.101   3.043
 2758SOL    HW211281   4.794   3.094   2.879
 2759SOL     OW11282   4.639   1.951   3.264
 2759SOL    HW111283   4.664   1.931   3.169
 2759SOL    HW211284   4.711   2.007   3.306
 2760SOL     OW11285   4.704   2.978   3.581
 2760SOL    HW111286   4.605   2.984   3.591
 2760SOL    HW211287   4.727   2.898   3.525
 2761SOL     OW11288   4.429   2.912   2.230
 2761SOL    HW111289   4.415   2.919   2.329
 2761SOL    HW211290   4.513   2.861   2.212
 2762SOL     OW11291   3.788   3.426   3.193
 2762SOL    HW111292   3.742   3.508   3.159
 2762SOL    HW211293   3.886   3.445   3.202
 2763SOL     OW11294   4.290   2.399   2.727
 2763SOL    HW111295   4.302   2.465   2.653
 2763SOL    HW211296   4.336   2.433   2.810
 2764SOL     OW11297   4.976   3.210   2.250
 2764SOL    HW111298   5.026   3.287   2.290
 2764SOL    HW211299   4.881   3.212   2.282
 2765SOL     OW11300   4.078   3.372   3.191
 2765SOL    HW111301   4.057   3.328   3.104
 2765SOL    HW211302   4.175   3.398   3.194
 2766SOL     OW11303   4.126   2.613   3.460
 2766SOL    HW111304   4.194   2.668   3.413
 2766SOL    HW211305   4.166   2.525   3.487
 2767SOL     OW11306   4.737   1.967   3.632
 2767SOL    HW111307   4.743   2.052   3.580
 2767SOL    HW211308   4.769   1.891   3.575
 2768SOL     OW11309   4.228   1.912   3.602
 2768SOL    HW111310   4.186   1.855   3.532
 2768SOL    HW211311   4.162   1.981   3.634
 2769SOL     OW11312   4.297   2.732   2.891
 2769SOL    HW111313   4.341   2.821   2.882
 2769SOL    HW211314   4.234   2.732   2.968
 2770SOL     OW11315   5.084   2.724   2.907
 2770SOL    HW111316   5.009   2.724   2.841
 2770SOL    HW211317   5.121   2.632   2.916
 2771SOL     OW11318   4.933   2.387   2.137
 2771SOL    HW111319   4.946   2.303   2.191
 2771SOL    HW211320   4.904   2.461   2.197
 2772SOL     OW11321   4.456   2.496   2.926
 2772SOL    HW111322   4.515   2.470   2.850
 2772SOL    HW211323   4.428   2.592   2.915
 2773SOL     OW11324   4.747   2.628   2.828
 2773SOL    HW111325   4.762   2.649   2.924
 2773SOL    HW211326   4.717   2.533   2.819
 2774SOL     OW11327   4.704   3.435   3.562
 2774SOL    HW111328   4.684   3.479   3.474
 2774SOL    HW211329   4.743   3.344   3.546
 2775SOL     OW11330   4.074   2.760   3.666
 2775SOL    HW111331   4.150   2.804   3.714
 2775SOL    HW211332   4.109   2.713   3.584
 2776SOL     OW11333   4.792   3.195   2.711
 2776SOL    HW111334   4.799   3.111   2.656
 2776SOL    HW211335   4.854   3.264   2.675
 2777SOL     OW11336   4.862   2.242   3.540
 2777SOL    HW111337   4.817   2.305   3.604
 2777SOL    HW211338   4.955   2.273   3.523
 2778SOL     OW11339   4.884   2.069   3.339
 2778SOL    HW111340   4.884   2.133   3.416
 2778SOL    HW211341   4.912   2.117   3.256
 2779SOL     OW11342   4.228   3.430   2.772
 2779SOL    HW111343   4.294   3.504   2.781
 2779SOL    HW211344   4.272   3.351   2.730
 2780SOL     OW11345   4.726   2.658   3.100
 2780SOL    HW111346   4.767   2.626   3.186
 2780SOL    HW211347   4.630   2.631   3.097
 2781SOL     OW11348   3.913   2.382   3.584
 2781SOL    HW111349   3.972   2.342   3.514
 2781SOL    HW211350   3.855   2.453   3.543
 2782SOL     OW11351   4.539   2.434   2.187
 2782SOL    HW111352   4.546   2.345   2.141
 2782SOL    HW211353   4.445   2.468   2.179
 2783SOL     OW11354   3.976   3.426   3.606
 2783SOL    HW111355   3.946   3.483   3.682
 2783SOL    HW211356   3.969   3.329   3.632
 2784SOL     OW11357   4.395   2.326   3.131
 2784SOL    HW111358   4.361   2.237   3.101
 2784SOL    HW211359   4.421   2.380   3.051
 2785SOL     OW11360   4.197   2.362   2.053
 2785SOL    HW111361   4.258   2.442   2.057
 2785SOL    HW211362   4.102   2.393   2.060
 2786SOL     OW11363   4.412   3.524   3.578
 2786SOL    HW111364   4.356   3.605   3.587
 2786SOL    HW211365   4.464   3.528   3.492
 2787SOL     OW11366   3.854   3.656   3.713
 2787SOL    HW111367   3.813   3.582   3.766
 2787SOL    HW211368   3.918   3.707   3.771
 2788SOL     OW11369   4.554   3.135   3.284
 2788SOL    HW111370   4.549   3.168   3.379
 2788SOL    HW211371   4.468   3.154   3.238
 2789SOL     OW11372   4.396   3.478   2.016
 2789SOL    HW111373   4.405   3.488   1.917
 2789SOL    HW211374   4.356   3.389   2.037
 2790SOL     OW11375   4.546   2.864   3.234
 2790SOL    HW111376   4.586   2.863   3.142
 2790SOL    HW211377   4.556   2.956   3.274
 2791SOL     OW11378   4.640   2.772   2.153
 2791SOL    HW111379   4.703   2.810   2.085
 2791SOL    HW211380   4.680   2.689   2.192
 2792SOL     OW11381   4.763   2.960   2.558
 2792SOL    HW111382   4.693   2.913   2.612
 2792SOL    HW211383   4.822   2.892   2.515
 2793SOL     OW11384   4.738   2.098   2.833
 2793SOL    HW111385   4.730   2.062   2.740
 2793SOL    HW211386   4.736   2.022   2.898
 2794SOL     OW11387   4.314   3.349   2.353
 2794SOL    HW111388   4.356   3.291   2.283
 2794SOL    HW211389   4.270   3.428   2.309
 2795SOL     OW11390   4.396   2.065   3.351
 2795SOL    HW111391   4.486   2.049   3.311
 2795SOL    HW211392   4.404   2.070   3.450
 2796SOL     OW11393   4.337   2.704   3.293
 2796SOL    HW111394   4.393   2.785   3.276
 2796SOL    HW211395   4.396   2.624   3.296
 2797SOL     OW11396   4.440   2.427   3.570
 2797SOL    HW111397   4.459   2.492   3.644
 2797SOL    HW211398   4.500   2.347   3.579
 2798SOL     OW11399   4.114   3.603   3.422
 2798SOL    HW111400   4.023   3.644   3.420
 2798SOL    HW211401   4.107   3.509   3.454
 2799SOL     OW11402   4.318   2.607   2.514
 2799SOL    HW111403   4.368   2.692   2.495
 2799SOL    HW211404   4.230   2.609   2.466
 2800SOL     OW11405   4.583   3.236   1.878
 2800SOL    HW111406   4.537   3.251   1.966
 2800SOL    HW211407   4.627   3.321   1.848
 2801SOL     OW11408   4.385   3.652   2.815
 2801SOL    HW111409   4.339   3.740   2.802
 2801SOL    HW211410   4.484   3.664   2.808
 2802SOL     OW11411   4.583   2.818   2.723
 2802SOL    HW111412   4.637   2.749   2.771
 2802SOL    HW211413   4.551   2.887   2.789
 2803SOL     OW11414   4.807   2.846   1.949
 2803SOL    HW111415   4.784   2.899   1.867
 2803SOL    HW211416   4.888   2.790   1.930
 2804SOL     OW11417   3.945   3.176   3.706
 2804SOL    HW111418   3.880   3.103   3.685
 2804SOL    HW211419   3.949   3.190   3.804
 2805SOL     OW11420   4.396   3.253   3.486
 2805SOL    HW111421   4.318   3.203   3.524
 2805SOL    HW211422   4.393   3.348   3.517
 2806SOL     OW11423   4.536   3.448   2.549
 2806SOL    HW111424   4.568   3.458   2.455
 2806SOL    HW211425   4.457   3.386   2.551
 2807SOL     OW11426   4.725   1.896   3.016
 2807SOL    HW111427   4.662   1.824   2.985
 2807SOL    HW211428   4.818   1.860   3.016
 2808SOL     OW11429   4.494   3.192   2.163
 2808SOL    HW111430   4.448   3.105   2.180
 2808SOL    HW211431   4.585   3.189   2.204
 2809SOL     OW11432   3.954   2.490   3.837
 2809SOL    HW111433   3.861   2.488   3.874
 2809SOL    HW211434   3.955   2.451   3.745
 2810SOL     OW11435   3.949   2.137   4.720
 2810SOL    HW111436   3.984   2.120   4.812
 2810SOL    HW211437   3.861   2.092   4.708
 2811SOL     OW11438   3.743   2.230   4.371
 2811SOL    HW111439   3.661   2.273   4.410
 2811SOL    HW211440   3.715   2.157   4.308
 2812SOL     OW11441   4.293   3.137   4.889
 2812SOL    HW111442   4.200   3.130   4.852
 2812SOL    HW211443   4.304   3.226   4.933
 2813SOL     OW11444   4.859   2.565   4.441
 2813SOL    HW111445   4.916   2.643   4.416
 2813SOL    HW211446   4.799   2.591   4.517
 2814SOL     OW11447   4.492   3.006   4.747
 2814SOL    HW111448   4.414   3.023   4.807
 2814SOL    HW211449   4.526   3.093   4.711
 2815SOL     OW11450   4.409   2.874   4.389
 2815SOL    HW111451   4.478   2.858   4.459
 2815SOL    HW211452   4.336   2.931   4.427
 2816SOL     OW11453   4.059   3.297   4.785
 2816SOL    HW111454   3.981   3.266   4.732
 2816SOL    HW211455   4.117   3.355   4.728
 2817SOL     OW11456   5.184   3.367   5.063
 2817SOL    HW111457   5.208   3.461   5.089
 2817SOL    HW211458   5.168   3.313   5.145
 2818SOL     OW11459   3.955   3.575   4.207
 2818SOL    HW111460   3.989   3.652   4.261
 2818SOL    HW211461   3.999   3.575   4.117
 2819SOL     OW11462   3.954   3.296   4.262
 2819SOL    HW111463   3.928   3.392   4.262
 2819SOL    HW211464   3.883   3.242   4.307
 2820SOL     OW11465   3.964   2.953   4.610
 2820SOL    HW111466   3.978   2.869   4.662
 2820SOL    HW211467   3.909   3.017   4.665
 2821SOL     OW11468   4.330   2.826   3.847
 2821SOL    HW111469   4.337   2.910   3.793
 2821SOL    HW211470   4.376   2.839   3.935
 2822SOL     OW11471   3.846   2.505   4.287
 2822SOL    HW111472   3.801   2.417   4.304
 2822SOL    HW211473   3.845   2.559   4.371
 2823SOL     OW11474   4.337   3.227   4.450
 2823SOL    HW111475   4.288   3.140   4.459
 2823SOL    HW211476   4.314   3.270   4.363
 2824SOL     OW11477   4.533   1.866   4.226
 2824SOL    HW111478   4.573   1.957   4.217
 2824SOL    HW211479   4.433   1.874   4.232
 2825SOL     OW11480   3.921   2.838   4.988
 2825SOL    HW111481   4.010   2.793   4.974
 2825SOL    HW211482   3.848   2.773   4.969
 2826SOL     OW11483   4.322   2.591   3.994
 2826SOL    HW111484   4.346   2.660   3.926
 2826SOL    HW211485   4.244   2.624   4.048
 2827SOL     OW11486   4.765   2.563   4.153
 2827SOL    HW111487   4.791   2.559   4.249
 2827SOL    HW211488   4.680   2.512   4.139
 2828SOL     OW11489   3.800   2.673   4.513
 2828SOL    HW111490   3.899   2.661   4.522
 2828SOL    HW211491   3.776   2.768   4.534
 2829SOL     OW11492   4.589   2.210   3.919
 2829SOL    HW111493   4.648   2.273   3.870
 2829SOL    HW211494   4.608   2.116   3.890
 2830SOL     OW11495   4.274   2.058   4.609
 2830SOL    HW111496   4.269   2.053   4.709
 2830SOL    HW211497   4.276   2.154   4.580
 2831SOL     OW11498   4.732   3.318   4.201
 2831SOL    HW111499   4.686   3.390   4.149
 2831SOL    HW211500   4.728   3.338   4.299
 2832SOL     OW11501   4.045   2.805   3.966
 2832SOL    HW111502   4.127   2.844   3.924
 2832SOL    HW211503   4.018   2.723   3.917
 2833SOL     OW11504   4.835   3.638   3.961
 2833SOL    HW111505   4.775   3.576   4.011
 2833SOL    HW211506   4.866   3.594   3.876
 2834SOL     OW11507   4.188   3.605   4.047
 2834SOL    HW111508   4.221   3.644   4.133
 2834SOL    HW211509   4.264   3.598   3.982
 2835SOL     OW11510   3.973   3.647   4.965
 2835SOL    HW111511   4.030   3.582   5.015
 2835SOL    HW211512   3.957   3.614   4.872
 2836SOL     OW11513   4.106   2.562   4.204
 2836SOL    HW111514   4.151   2.472   4.201
 2836SOL    HW211515   4.012   2.551   4.237
 2837SOL     OW11516   4.338   1.984   3.841
 2837SOL    HW111517   4.436   1.962   3.848
 2837SOL    HW211518   4.307   1.967   3.748
 2838SOL     OW11519   4.527   3.264   4.648
 2838SOL    HW111520   4.617   3.278   4.606
 2838SOL    HW211521   4.456   3.266   4.577
 2839SOL     OW11522   4.646   2.365   4.623
 2839SOL    HW111523   4.621   2.356   4.527
 2839SOL    HW211524   4.694   2.283   4.654
 2840SOL     OW11525   4.263   1.926   4.236
 2840SOL    HW111526   4.182   1.927   4.294
 2840SOL    HW211527   4.266   2.009   4.181
 2841SOL     OW11528   4.021   1.897   3.895
 2841SOL    HW111529   4.070   1.981   3.874
 2841SOL    HW211530   4.083   1.832   3.940
 2842SOL     OW11531   4.659   2.098   4.204
 2842SOL    HW111532   4.611   2.139   4.126
 2842SOL    HW211533   4.758   2.096   4.185
 2843SOL     OW11534   4.951   3.432   4.517
 2843SOL    HW111535   4.972   3.506   4.452
 2843SOL    HW211536   5.019   3.432   4.590
 2844SOL     OW11537   4.183   3.014   4.465
 2844SOL    HW111538   4.112   2.987   4.530
 2844SOL    HW211539   4.157   2.986   4.372
 2845SOL     OW11540   4.995   3.659   4.315
 2845SOL    HW111541   5.039   3.723   4.251
 2845SOL    HW211542   4.945   3.711   4.385
 2846SOL     OW11543   4.756   2.411   3.740
 2846SOL    HW111544   4.715   2.493   3.701
 2846SOL    HW211545   4.820   2.437   3.813
 2847SOL     OW11546   4.590   2.316   4.366
 2847SOL    HW111547   4.558   2.388   4.304
 2847SOL    HW211548   4.614   2.235   4.313
 2848SOL     OW11549   4.741   1.901   4.477
 2848SOL    HW111550   4.669   1.906   4.408
 2848SOL    HW211551   4.717   1.832   4.546
 2849SOL     OW11552   4.212   3.247   3.898
 2849SOL    HW111553   4.125   3.232   3.945
 2849SOL    HW211554   4.195   3.273   3.803
 2850SOL     OW11555   4.251   2.118   4.052
 2850SOL    HW111556   4.278   2.059   3.977
 2850SOL    HW211557   4.251   2.213   4.021
 2851SOL     OW11558   4.835   3.057   4.824
 2851SOL    HW111559   4.795   3.101   4.905
 2851SOL    HW211560   4.794   3.094   4.741
 2852SOL     OW11561   4.429   2.912   4.092
 2852SOL    HW111562   4.415   2.919   4.191
 2852SOL    HW211563   4.513   2.861   4.074
 2853SOL     OW11564   4.134   2.675   4.975
 2853SOL    HW111565   4.220   2.687   5.025
 2853SOL    HW211566   4.092   2.588   5.002
 2854SOL     OW11567   4.091   2.962   4.225
 2854SOL    HW111568   4.084   3.045   4.169
 2854SOL    HW211569   4.095   2.882   4.165
 2855SOL     OW11570   4.290   2.399   4.589
 2855SOL    HW111571   4.302   2.465   4.515
 2855SOL    HW211572   4.336   2.433   4.672
 2856SOL     OW11573   4.976   3.210   4.112
 2856SOL    HW111574   5.026   3.287   4.152
 2856SOL    HW211575   4.881   3.212   4.144
 2857SOL     OW11576   4.297   2.732   4.753
 2857SOL    HW111577   4.341   2.821   4.744
 2857SOL    HW211578   4.234   2.732   4.830
 2858SOL     OW11579   5.084   2.724   4.769
 2858SOL    HW111580   5.009   2.724   4.703
 2858SOL    HW211581   5.121   2.632   4.778
 2859SOL     OW11582   4.933   2.387   3.999
 2859SOL    HW111583   4.946   2.303   4.053
 2859SOL    HW211584   4.904   2.461   4.059
 2860SOL     OW11585   4.031   2.075   4.955
 2860SOL    HW111586   4.008   2.112   5.045
 2860SOL    HW211587   4.001   1.980   4.949
 2861SOL     OW11588   3.761   3.172   5.006
 2861SOL    HW111589   3.814   3.123   5.074
 2861SOL    HW211590   3.783   3.270   5.011
 2862SOL     OW11591   4.456   2.496   4.788
 2862SOL    HW111592   4.515   2.470   4.712
 2862SOL    HW211593   4.428   2.592   4.777
 2863SOL     OW11594   4.031   1.925   4.342
 2863SOL    HW111595   4.020   2.019   4.375
 2863SOL    HW211596   4.026   1.862   4.419
 2864SOL     OW11597   4.747   2.628   4.690
 2864SOL    HW111598   4.762   2.649   4.786
 2864SOL    HW211599   4.717   2.533   4.681
 2865SOL     OW11600   5.264   2.136   3.849
 2865SOL    HW111601   5.203   2.061   3.872
 2865SOL    HW211602   5.286   2.188   3.932
 2866SOL     OW11603   4.792   3.195   4.573
 2866SOL    HW111604   4.799   3.111   4.518
 2866SOL    HW211605   4.854   3.264   4.537
 2867SOL     OW11606   4.043   2.672   4.673
 2867SOL    HW111607   4.136   2.708   4.678
 2867SOL    HW211608   4.037   2.587   4.725
 2868SOL     OW11609   4.063   2.371   4.730
 2868SOL    HW111610   4.011   2.288   4.713
 2868SOL    HW211611   4.140   2.376   4.666
 2869SOL     OW11612   4.884   2.069   5.201
 2869SOL    HW111613   4.884   2.133   5.278
 2869SOL    HW211614   4.912   2.117   5.118
 2870SOL     OW11615   3.812   3.663   4.651
 2870SOL    HW111616   3.770   3.577   4.624
 2870SOL    HW211617   3.906   3.666   4.617
 2871SOL     OW11618   4.726   2.658   4.962
 2871SOL    HW111619   4.767   2.626   5.048
 2871SOL    HW211620   4.630   2.631   4.959
 2872SOL     OW11621   3.764   2.406   4.838
 2872SOL    HW111622   3.849   2.373   4.797
 2872SOL    HW211623   3.777   2.421   4.936
 2873SOL     OW11624   4.539   2.434   4.049
 2873SOL    HW111625   4.546   2.345   4.003
 2873SOL    HW211626   4.445   2.468   4.041
 2874SOL     OW11627   4.395   2.326   4.993
 2874SOL    HW111628   4.361   2.237   4.963
 2874SOL    HW211629   4.421   2.380   4.913
 2875SOL     OW11630   4.197   2.362   3.915
 2875SOL    HW111631   4.258   2.442   3.919
 2875SOL    HW211632   4.102   2.393   3.922
 2876SOL     OW11633   3.883   2.999   5.190
 2876SOL    HW111634   3.905   2.938   5.266
 2876SOL    HW211635   3.893   2.950   5.104
 2877SOL     OW11636   4.976   3.593   4.852
 2877SOL    HW111637   5.060   3.598   4.798
 2877SOL    HW211638   4.953   3.497   4.870
 2878SOL     OW11639   3.807   3.120   4.746
 2878SOL    HW111640   3.802   3.119   4.846
 2878SOL    HW211641   3.724   3.079   4.708
 2879SOL     OW11642   4.396   3.478   3.878
 2879SOL    HW111643   4.405   3.488   3.779
 2879SOL    HW211644   4.356   3.389   3.899
 2880SOL     OW11645   3.987   2.188   4.444
 2880SOL    HW111646   3.908   2.239   4.410
 2880SOL    HW211647   3.978   2.173   4.542
 2881SOL     OW11648   4.546   2.864   5.096
 2881SOL    HW111649   4.586   2.863   5.004
 2881SOL    HW211650   4.556   2.956   5.136
 2882SOL     OW11651   4.640   2.772   4.015
 2882SOL    HW111652   4.703   2.810   3.947
 2882SOL    HW211653   4.680   2.689   4.054
 2883SOL     OW11654   4.763   2.960   4.420
 2883SOL    HW111655   4.693   2.913   4.474
 2883SOL    HW211656   4.822   2.892   4.377
 2884SOL     OW11657   4.738   2.098   4.695
 2884SOL    HW111658   4.730   2.062   4.602
 2884SOL    HW211659   4.736   2.022   4.760
 2885SOL     OW11660   4.314   3.349   4.215
 2885SOL    HW111661   4.356   3.291   4.145
 2885SOL    HW211662   4.270   3.428   4.171
 2886SOL     OW11663   3.979   3.210   4.014
 2886SOL    HW111664   3.883   3.211   3.987
 2886SOL    HW211665   3.991   3.263   4.098
 2887SOL     OW11666   3.796   2.028   4.042
 2887SOL    HW111667   3.779   2.111   3.988
 2887SOL    HW211668   3.886   1.991   4.020
 2888SOL     OW11669   4.318   2.607   4.376
 2888SOL    HW111670   4.368   2.692   4.357
 2888SOL    HW211671   4.230   2.609   4.328
 2889SOL     OW11672   4.583   3.236   3.740
 2889SOL    HW111673   4.537   3.251   3.828
 2889SOL    HW211674   4.627   3.321   3.710
 2890SOL     OW11675   4.583   2.818   4.585
 2890SOL    HW111676   4.637   2.749   4.633
 2890SOL    HW211677   4.551   2.887   4.651
 2891SOL     OW11678   4.807   2.846   3.811
 2891SOL    HW111679   4.784   2.899   3.729
 2891SOL    HW211680   4.888   2.790   3.792
 2892SOL     OW11681   3.803   3.102   4.377
 2892SOL    HW111682   3.802   3.055   4.465
 2892SOL    HW211683   3.885   3.074   4.326
 2893SOL     OW11684   4.152   2.286   4.244
 2893SOL    HW111685   4.182   2.214   4.182
 2893SOL    HW211686   4.113   2.246   4.327
 2894SOL     OW11687   4.725   1.896   4.878
 2894SOL    HW111688   4.662   1.824   4.847
 2894SOL    HW211689   4.818   1.860   4.878
 2895SOL     OW11690   4.494   3.192   4.025
 2895SOL    HW111691   4.448   3.105   4.042
 2895SOL    HW211692   4.585   3.189   4.066
 2896SOL     OW11693   3.763   2.939   4.024
 2896SOL    HW111694   3.862   2.928   4.015
 2896SOL    HW211695   3.723   2.853   4.056
 2897SOL     OW11696   4.599   3.508   4.061
 2897SOL    HW111697   4.522   3.473   4.007
 2897SOL    HW211698   4.567   3.579   4.123
 2898SOL     OW11699   3.954   4.352   0.113
 2898SOL    HW111700   3.861   4.350   0.150
 2898SOL    HW211701   3.955   4.313   0.021
 2899SOL     OW11702   3.949   3.999   0.996
 2899SOL    HW111703   3.984   3.982   1.088
 2899SOL    HW211704   3.861   3.954   0.984
 2900SOL     OW11705   3.743   4.092   0.647
 2900SOL    HW111706   3.661   4.135   0.686
 2900SOL    HW211707   3.715   4.019   0.584
 2901SOL     OW11708   4.859   4.427   0.717
 2901SOL    HW111709   4.916   4.505   0.692
 2901SOL    HW211710   4.799   4.453   0.793
 2902SOL     OW11711   4.492   4.868   1.023
 2902SOL    HW111712   4.414   4.885   1.083
 2902SOL    HW211713   4.526   4.955   0.987
 2903SOL     OW11714   4.574   4.522   1.823
 2903SOL    HW111715   4.570   4.598   1.888
 2903SOL    HW211716   4.596   4.558   1.732
 2904SOL     OW11717   4.409   4.736   0.665
 2904SOL    HW111718   4.478   4.720   0.735
 2904SOL    HW211719   4.336   4.793   0.703
 2905SOL     OW11720   4.410   4.885   1.803
 2905SOL    HW111721   4.470   4.964   1.817
 2905SOL    HW211722   4.324   4.916   1.762
 2906SOL     OW11723   4.162   4.116   1.499
 2906SOL    HW111724   4.244   4.060   1.508
 2906SOL    HW211725   4.081   4.058   1.503
 2907SOL     OW11726   3.964   4.815   0.886
 2907SOL    HW111727   3.978   4.731   0.938
 2907SOL    HW211728   3.909   4.879   0.941
 2908SOL     OW11729   4.330   4.688   0.123
 2908SOL    HW111730   4.337   4.772   0.069
 2908SOL    HW211731   4.376   4.701   0.211
 2909SOL     OW11732   3.846   4.367   0.563
 2909SOL    HW111733   3.801   4.279   0.580
 2909SOL    HW211734   3.845   4.421   0.647
 2910SOL     OW11735   3.837   4.461   1.597
 2910SOL    HW111736   3.925   4.448   1.642
 2910SOL    HW211737   3.824   4.558   1.575
 2911SOL     OW11738   4.533   3.728   0.502
 2911SOL    HW111739   4.573   3.819   0.493
 2911SOL    HW211740   4.433   3.736   0.508
 2912SOL     OW11741   3.921   4.700   1.264
 2912SOL    HW111742   4.010   4.655   1.250
 2912SOL    HW211743   3.848   4.635   1.245
 2913SOL     OW11744   4.041   3.975   1.801
 2913SOL    HW111745   4.112   4.046   1.807
 2913SOL    HW211746   3.953   4.014   1.829
 2914SOL     OW11747   4.322   4.453   0.270
 2914SOL    HW111748   4.346   4.522   0.202
 2914SOL    HW211749   4.244   4.486   0.324
 2915SOL     OW11750   4.531   4.329   1.465
 2915SOL    HW111751   4.484   4.326   1.554
 2915SOL    HW211752   4.480   4.274   1.399
 2916SOL     OW11753   4.697   4.614   1.572
 2916SOL    HW111754   4.743   4.530   1.543
 2916SOL    HW211755   4.641   4.648   1.497
 2917SOL     OW11756   4.715   4.134   1.242
 2917SOL    HW111757   4.638   4.168   1.296
 2917SOL    HW211758   4.681   4.083   1.163
 2918SOL     OW11759   4.765   4.425   0.429
 2918SOL    HW111760   4.791   4.421   0.525
 2918SOL    HW211761   4.680   4.374   0.415
 2919SOL     OW11762   3.800   4.535   0.789
 2919SOL    HW111763   3.899   4.523   0.798
 2919SOL    HW211764   3.776   4.630   0.810
 2920SOL     OW11765   4.589   4.072   0.195
 2920SOL    HW111766   4.648   4.135   0.146
 2920SOL    HW211767   4.608   3.978   0.166
 2921SOL     OW11768   4.274   3.920   0.885
 2921SOL    HW111769   4.269   3.915   0.985
 2921SOL    HW211770   4.276   4.016   0.856
 2922SOL     OW11771   4.045   4.667   0.242
 2922SOL    HW111772   4.127   4.706   0.200
 2922SOL    HW211773   4.018   4.585   0.193
 2923SOL     OW11774   3.926   4.009   1.498
 2923SOL    HW111775   3.846   4.069   1.485
 2923SOL    HW211776   3.916   3.960   1.584
 2924SOL     OW11777   4.106   4.424   0.480
 2924SOL    HW111778   4.151   4.334   0.477
 2924SOL    HW211779   4.012   4.413   0.513
 2925SOL     OW11780   4.338   3.846   0.117
 2925SOL    HW111781   4.436   3.824   0.124
 2925SOL    HW211782   4.307   3.829   0.024
 2926SOL     OW11783   4.505   3.988   1.749
 2926SOL    HW111784   4.572   3.927   1.792
 2926SOL    HW211785   4.432   4.007   1.814
 2927SOL     OW11786   4.646   4.227   0.899
 2927SOL    HW111787   4.621   4.218   0.803
 2927SOL    HW211788   4.694   4.145   0.930
 2928SOL     OW11789   4.263   3.788   0.512
 2928SOL    HW111790   4.182   3.789   0.570
 2928SOL    HW211791   4.266   3.871   0.457
 2929SOL     OW11792   4.021   3.759   0.171
 2929SOL    HW111793   4.070   3.843   0.150
 2929SOL    HW211794   4.083   3.694   0.216
 2930SOL     OW11795   4.659   3.960   0.480
 2930SOL    HW111796   4.611   4.001   0.402
 2930SOL    HW211797   4.758   3.958   0.461
 2931SOL     OW11798   4.800   4.407   1.464
 2931SOL    HW111799   4.720   4.346   1.467
 2931SOL    HW211800   4.881   4.354   1.440
 2932SOL     OW11801   4.183   4.876   0.741
 2932SOL    HW111802   4.112   4.849   0.806
 2932SOL    HW211803   4.157   4.848   0.648
 2933SOL     OW11804   4.756   4.273   0.016
 2933SOL    HW111805   4.715   4.355  -0.023
 2933SOL    HW211806   4.820   4.299   0.089
 2934SOL     OW11807   3.802   4.280   1.386
 2934SOL    HW111808   3.894   4.279   1.345
 2934SOL    HW211809   3.796   4.354   1.453
 2935SOL     OW11810   4.285   3.946   1.147
 2935SOL    HW111811   4.323   3.862   1.184
 2935SOL    HW211812   4.197   3.965   1.191
 2936SOL     OW11813   4.590   4.178   0.642
 2936SOL    HW111814   4.558   4.250   0.580
 2936SOL    HW211815   4.614   4.097   0.589
 2937SOL     OW11816   4.741   3.763   0.753
 2937SOL    HW111817   4.669   3.768   0.684
 2937SOL    HW211818   4.717   3.694   0.822
 2938SOL     OW11819   4.251   3.980   0.328
 2938SOL    HW111820   4.278   3.921   0.253
 2938SOL    HW211821   4.251   4.075   0.297
 2939SOL     OW11822   4.639   3.813   1.402
 2939SOL    HW111823   4.664   3.793   1.307
 2939SOL    HW211824   4.711   3.869   1.444
 2940SOL     OW11825   4.704   4.840   1.719
 2940SOL    HW111826   4.605   4.846   1.729
 2940SOL    HW211827   4.727   4.760   1.663
 2941SOL     OW11828   4.429   4.774   0.368
 2941SOL    HW111829   4.415   4.781   0.467
 2941SOL    HW211830   4.513   4.723   0.350
 2942SOL     OW11831   4.134   4.537   1.251
 2942SOL    HW111832   4.220   4.549   1.301
 2942SOL    HW211833   4.092   4.450   1.278
 2943SOL     OW11834   4.091   4.824   0.501
 2943SOL    HW111835   4.084   4.907   0.445
 2943SOL    HW211836   4.095   4.744   0.441
 2944SOL     OW11837   4.290   4.261   0.865
 2944SOL    HW111838   4.302   4.327   0.791
 2944SOL    HW211839   4.336   4.295   0.948
 2945SOL     OW11840   4.126   4.475   1.598
 2945SOL    HW111841   4.194   4.530   1.551
 2945SOL    HW211842   4.166   4.387   1.625
 2946SOL     OW11843   4.737   3.829   1.770
 2946SOL    HW111844   4.743   3.914   1.718
 2946SOL    HW211845   4.769   3.753   1.713
 2947SOL     OW11846   4.228   3.774   1.740
 2947SOL    HW111847   4.186   3.717   1.670
 2947SOL    HW211848   4.162   3.843   1.772
 2948SOL     OW11849   4.297   4.594   1.029
 2948SOL    HW111850   4.341   4.683   1.020
 2948SOL    HW211851   4.234   4.594   1.106
 2949SOL     OW11852   5.084   4.586   1.045
 2949SOL    HW111853   5.009   4.586   0.979
 2949SOL    HW211854   5.121   4.494   1.054
 2950SOL     OW11855   4.933   4.249   0.275
 2950SOL    HW111856   4.946   4.165   0.329
 2950SOL    HW211857   4.904   4.323   0.335
 2951SOL     OW11858   4.031   3.937   1.231
 2951SOL    HW111859   4.008   3.974   1.321
 2951SOL    HW211860   4.001   3.842   1.225
 2952SOL     OW11861   4.456   4.358   1.064
 2952SOL    HW111862   4.515   4.332   0.988
 2952SOL    HW211863   4.428   4.454   1.053
 2953SOL     OW11864   4.031   3.787   0.618
 2953SOL    HW111865   4.020   3.881   0.651
 2953SOL    HW211866   4.026   3.724   0.695
 2954SOL     OW11867   4.747   4.490   0.966
 2954SOL    HW111868   4.762   4.511   1.062
 2954SOL    HW211869   4.717   4.395   0.957
 2955SOL     OW11870   4.074   4.622   1.804
 2955SOL    HW111871   4.150   4.666   1.852
 2955SOL    HW211872   4.109   4.575   1.722
 2956SOL     OW11873   4.043   4.534   0.949
 2956SOL    HW111874   4.136   4.570   0.954
 2956SOL    HW211875   4.037   4.449   1.001
 2957SOL     OW11876   4.063   4.233   1.006
 2957SOL    HW111877   4.011   4.150   0.989
 2957SOL    HW211878   4.140   4.238   0.942
 2958SOL     OW11879   4.862   4.104   1.678
 2958SOL    HW111880   4.817   4.167   1.742
 2958SOL    HW211881   4.955   4.135   1.661
 2959SOL     OW11882   4.884   3.931   1.477
 2959SOL    HW111883   4.884   3.995   1.554
 2959SOL    HW211884   4.912   3.979   1.394
 2960SOL     OW11885   3.732   5.050   0.200
 2960SOL    HW111886   3.639   5.071   0.169
 2960SOL    HW211887   3.742   4.951   0.213
 2961SOL     OW11888   4.726   4.520   1.238
 2961SOL    HW111889   4.767   4.488   1.324
 2961SOL    HW211890   4.630   4.493   1.235
 2962SOL     OW11891   3.764   4.268   1.114
 2962SOL    HW111892   3.849   4.235   1.073
 2962SOL    HW211893   3.777   4.283   1.212
 2963SOL     OW11894   3.913   4.244   1.722
 2963SOL    HW111895   3.972   4.204   1.652
 2963SOL    HW211896   3.855   4.315   1.681
 2964SOL     OW11897   4.539   4.296   0.325
 2964SOL    HW111898   4.546   4.207   0.279
 2964SOL    HW211899   4.445   4.330   0.317
 2965SOL     OW11900   4.395   4.188   1.269
 2965SOL    HW111901   4.361   4.099   1.239
 2965SOL    HW211902   4.421   4.242   1.189
 2966SOL     OW11903   4.197   4.224   0.191
 2966SOL    HW111904   4.258   4.304   0.195
 2966SOL    HW211905   4.102   4.255   0.198
 2967SOL     OW11906   3.883   4.861   1.466
 2967SOL    HW111907   3.905   4.800   1.542
 2967SOL    HW211908   3.893   4.812   1.380
 2968SOL     OW11909   3.807   4.982   1.022
 2968SOL    HW111910   3.802   4.981   1.122
 2968SOL    HW211911   3.724   4.941   0.984
 2969SOL     OW11912   4.627   3.810   0.133
 2969SOL    HW111913   4.678   3.811   0.047
 2969SOL    HW211914   4.683   3.768   0.204
 2970SOL     OW11915   3.987   4.050   0.720
 2970SOL    HW111916   3.908   4.101   0.686
 2970SOL    HW211917   3.978   4.035   0.818
 2971SOL     OW11918   4.546   4.726   1.372
 2971SOL    HW111919   4.586   4.725   1.280
 2971SOL    HW211920   4.556   4.818   1.412
 2972SOL     OW11921   4.640   4.634   0.291
 2972SOL    HW111922   4.703   4.672   0.223
 2972SOL    HW211923   4.680   4.551   0.330
 2973SOL     OW11924   4.096   5.012   1.490
 2973SOL    HW111925   4.083   5.105   1.456
 2973SOL    HW211926   4.012   4.960   1.477
 2974SOL     OW11927   4.763   4.822   0.696
 2974SOL    HW111928   4.693   4.775   0.750
 2974SOL    HW211929   4.822   4.754   0.653
 2975SOL     OW11930   4.738   3.960   0.971
 2975SOL    HW111931   4.730   3.924   0.878
 2975SOL    HW211932   4.736   3.884   1.036
 2976SOL     OW11933   3.829   4.737   1.726
 2976SOL    HW111934   3.752   4.704   1.780
 2976SOL    HW211935   3.914   4.707   1.768
 2977SOL     OW11936   4.396   3.927   1.489
 2977SOL    HW111937   4.486   3.911   1.449
 2977SOL    HW211938   4.404   3.932   1.588
 2978SOL     OW11939   3.796   3.890   0.318
 2978SOL    HW111940   3.779   3.973   0.264
 2978SOL    HW211941   3.886   3.853   0.296
 2979SOL     OW11942   4.337   4.566   1.431
 2979SOL    HW111943   4.393   4.647   1.414
 2979SOL    HW211944   4.396   4.486   1.434
 2980SOL     OW11945   4.440   4.289   1.708
 2980SOL    HW111946   4.459   4.354   1.782
 2980SOL    HW211947   4.500   4.209   1.717
 2981SOL     OW11948   4.318   4.469   0.652
 2981SOL    HW111949   4.368   4.554   0.633
 2981SOL    HW211950   4.230   4.471   0.604
 2982SOL     OW11951   4.583   4.680   0.861
 2982SOL    HW111952   4.637   4.611   0.909
 2982SOL    HW211953   4.551   4.749   0.927
 2983SOL     OW11954   4.807   4.708   0.087
 2983SOL    HW111955   4.784   4.761   0.005
 2983SOL    HW211956   4.888   4.652   0.068
 2984SOL     OW11957   3.803   4.964   0.653
 2984SOL    HW111958   3.802   4.917   0.741
 2984SOL    HW211959   3.885   4.936   0.602
 2985SOL     OW11960   4.152   4.148   0.520
 2985SOL    HW111961   4.182   4.076   0.458
 2985SOL    HW211962   4.113   4.108   0.603
 2986SOL     OW11963   4.041   4.271   1.280
 2986SOL    HW111964   4.079   4.212   1.352
 2986SOL    HW211965   4.081   4.245   1.192
 2987SOL     OW11966   4.725   3.758   1.154
 2987SOL    HW111967   4.662   3.686   1.123
 2987SOL    HW211968   4.818   3.722   1.154
 2988SOL     OW11969   4.494   5.054   0.301
 2988SOL    HW111970   4.448   4.967   0.318
 2988SOL    HW211971   4.585   5.051   0.342
 2989SOL     OW11972   3.954   4.352   1.975
 2989SOL    HW111973   3.861   4.350   2.012
 2989SOL    HW211974   3.955   4.313   1.883
 2990SOL     OW11975   3.949   3.999   2.858
 2990SOL    HW111976   3.984   3.982   2.950
 2990SOL    HW211977   3.861   3.954   2.846
 2991SOL     OW11978   3.743   4.092   2.509
 2991SOL    HW111979   3.661   4.135   2.548
 2991SOL    HW211980   3.715   4.019   2.446
 2992SOL     OW11981   4.859   4.427   2.579
 2992SOL    HW111982   4.916   4.505   2.554
 2992SOL    HW211983   4.799   4.453   2.655
 2993SOL     OW11984   4.492   4.868   2.885
 2993SOL    HW111985   4.414   4.885   2.945
 2993SOL    HW211986   4.526   4.955   2.849
 2994SOL     OW11987   4.574   4.522   3.685
 2994SOL    HW111988   4.570   4.598   3.750
 2994SOL    HW211989   4.596   4.558   3.594
 2995SOL     OW11990   4.409   4.736   2.527
 2995SOL    HW111991   4.478   4.720   2.597
 2995SOL    HW211992   4.336   4.793   2.565
 2996SOL     OW11993   4.410   4.885   3.665
 2996SOL    HW111994   4.470   4.964   3.679
 2996SOL    HW211995   4.324   4.916   3.624
 2997SOL     OW11996   4.162   4.116   3.361
 2997SOL    HW111997   4.244   4.060   3.370
 2997SOL    HW211998   4.081   4.058   3.365
 2998SOL     OW11999   3.964   4.815   2.748
 2998SOL    HW112000   3.978   4.731   2.800
 2998SOL    HW212001   3.909   4.879   2.803
 2999SOL     OW12002   4.330   4.688   1.985
 2999SOL    HW112003   4.337   4.772   1.931
 2999SOL    HW212004   4.376   4.701   2.073
 3000SOL     OW12005   3.846   4.367   2.425
 3000SOL    HW112006   3.801   4.279   2.442
 3000SOL    HW212007   3.845   4.421   2.509
 3001SOL     OW12008   3.837   4.461   3.459
 3001SOL    HW112009   3.925   4.448   3.504
 3001SOL    HW212010   3.824   4.558   3.437
 3002SOL     OW12011   3.921   4.700   3.126
 3002SOL    HW112012   4.010   4.655   3.112
 3002SOL    HW212013   3.848   4.635   3.107
 3003SOL     OW12014   4.041   3.975   3.663
 3003SOL    HW112015   4.112   4.046   3.669
 3003SOL    HW212016   3.953   4.014   3.691
 3004SOL     OW12017   4.322   4.453   2.132
 3004SOL    HW112018   4.346   4.522   2.064
 3004SOL    HW212019   4.244   4.486   2.186
 3005SOL     OW12020   4.531   4.329   3.327
 3005SOL    HW112021   4.484   4.326   3.416
 3005SOL    HW212022   4.480   4.274   3.261
 3006SOL     OW12023   4.697   4.614   3.434
 3006SOL    HW112024   4.743   4.530   3.405
 3006SOL    HW212025   4.641   4.648   3.359
 3007SOL     OW12026   4.715   4.134   3.104
 3007SOL    HW112027   4.638   4.168   3.158
 3007SOL    HW212028   4.681   4.083   3.025
 3008SOL     OW12029   4.765   4.425   2.291
 3008SOL    HW112030   4.791   4.421   2.387
 3008SOL    HW212031   4.680   4.374   2.277
 3009SOL     OW12032   3.800   4.535   2.651
 3009SOL    HW112033   3.899   4.523   2.660
 3009SOL    HW212034   3.776   4.630   2.672
 3010SOL     OW12035   4.589   4.072   2.057
 3010SOL    HW112036   4.648   4.135   2.008
 3010SOL    HW212037   4.608   3.978   2.028
 3011SOL     OW12038   4.274   3.920   2.747
 3011SOL    HW112039   4.269   3.915   2.847
 3011SOL    HW212040   4.276   4.016   2.718
 3012SOL     OW12041   4.045   4.667   2.104
 3012SOL    HW112042   4.127   4.706   2.062
 3012SOL    HW212043   4.018   4.585   2.055
 3013SOL     OW12044   3.926   4.009   3.360
 3013SOL    HW112045   3.846   4.069   3.347
 3013SOL    HW212046   3.916   3.960   3.446
 3014SOL     OW12047   4.106   4.424   2.342
 3014SOL    HW112048   4.151   4.334   2.339
 3014SOL    HW212049   4.012   4.413   2.375
 3015SOL     OW12050   4.505   3.988   3.611
 3015SOL    HW112051   4.572   3.927   3.654
 3015SOL    HW212052   4.432   4.007   3.676
 3016SOL     OW12053   4.646   4.227   2.761
 3016SOL    HW112054   4.621   4.218   2.665
 3016SOL    HW212055   4.694   4.145   2.792
 3017SOL     OW12056   4.263   3.788   2.374
 3017SOL    HW112057   4.182   3.789   2.432
 3017SOL    HW212058   4.266   3.871   2.319
 3018SOL     OW12059   5.158   4.912   1.903
 3018SOL    HW112060   5.190   4.836   1.960
 3018SOL    HW212061   5.066   4.939   1.933
 3019SOL     OW12062   4.021   3.759   2.033
 3019SOL    HW112063   4.070   3.843   2.012
 3019SOL    HW212064   4.083   3.694   2.078
 3020SOL     OW12065   4.800   4.407   3.326
 3020SOL    HW112066   4.720   4.346   3.329
 3020SOL    HW212067   4.881   4.354   3.302
 3021SOL     OW12068   4.183   4.876   2.603
 3021SOL    HW112069   4.112   4.849   2.668
 3021SOL    HW212070   4.157   4.848   2.510
 3022SOL     OW12071   4.756   4.273   1.878
 3022SOL    HW112072   4.715   4.355   1.839
 3022SOL    HW212073   4.820   4.299   1.951
 3023SOL     OW12074   3.802   4.280   3.248
 3023SOL    HW112075   3.894   4.279   3.207
 3023SOL    HW212076   3.796   4.354   3.315
 3024SOL     OW12077   4.285   3.946   3.009
 3024SOL    HW112078   4.323   3.862   3.046
 3024SOL    HW212079   4.197   3.965   3.053
 3025SOL     OW12080   4.590   4.178   2.504
 3025SOL    HW112081   4.558   4.250   2.442
 3025SOL    HW212082   4.614   4.097   2.451
 3026SOL     OW12083   4.741   3.763   2.615
 3026SOL    HW112084   4.669   3.768   2.546
 3026SOL    HW212085   4.717   3.694   2.684
 3027SOL     OW12086   4.639   3.813   3.264
 3027SOL    HW112087   4.664   3.793   3.169
 3027SOL    HW212088   4.711   3.869   3.306
 3028SOL     OW12089   4.704   4.840   3.581
 3028SOL    HW112090   4.605   4.846   3.591
 3028SOL    HW212091   4.727   4.760   3.525
 3029SOL     OW12092   4.429   4.774   2.230
 3029SOL    HW112093   4.415   4.781   2.329
 3029SOL    HW212094   4.513   4.723   2.212
 3030SOL     OW12095   4.134   4.537   3.113
 3030SOL    HW112096   4.220   4.549   3.163
 3030SOL    HW212097   4.092   4.450   3.140
 3031SOL     OW12098   4.091   4.824   2.363
 3031SOL    HW112099   4.084   4.907   2.307
 3031SOL    HW212100   4.095   4.744   2.303
 3032SOL     OW12101   4.290   4.261   2.727
 3032SOL    HW112102   4.302   4.327   2.653
 3032SOL    HW212103   4.336   4.295   2.810
 3033SOL     OW12104   4.126   4.475   3.460
 3033SOL    HW112105   4.194   4.530   3.413
 3033SOL    HW212106   4.166   4.387   3.487
 3034SOL     OW12107   4.737   3.829   3.632
 3034SOL    HW112108   4.743   3.914   3.580
 3034SOL    HW212109   4.769   3.753   3.575
 3035SOL     OW12110   4.228   3.774   3.602
 3035SOL    HW112111   4.186   3.717   3.532
 3035SOL    HW212112   4.162   3.843   3.634
 3036SOL     OW12113   4.297   4.594   2.891
 3036SOL    HW112114   4.341   4.683   2.882
 3036SOL    HW212115   4.234   4.594   2.968
 3037SOL     OW12116   5.084   4.586   2.907
 3037SOL    HW112117   5.009   4.586   2.841
 3037SOL    HW212118   5.121   4.494   2.916
 3038SOL     OW12119   4.933   4.249   2.137
 3038SOL    HW112120   4.946   4.165   2.191
 3038SOL    HW212121   4.904   4.323   2.197
 3039SOL     OW12122   4.031   3.937   3.093
 3039SOL    HW112123   4.008   3.974   3.183
 3039SOL    HW212124   4.001   3.842   3.087
 3040SOL     OW12125   4.456   4.358   2.926
 3040SOL    HW112126   4.515   4.332   2.850
 3040SOL    HW212127   4.428   4.454   2.915
 3041SOL     OW12128   4.031   3.787   2.480
 3041SOL    HW112129   4.020   3.881   2.513
 3041SOL    HW212130   4.026   3.724   2.557
 3042SOL     OW12131   4.747   4.490   2.828
 3042SOL    HW112132   4.762   4.511   2.924
 3042SOL    HW212133   4.717   4.395   2.819
 3043SOL     OW12134   4.074   4.622   3.666
 3043SOL    HW112135   4.150   4.666   3.714
 3043SOL    HW212136   4.109   4.575   3.584
 3044SOL     OW12137   5.264   3.998   1.987
 3044SOL    HW112138   5.203   3.923   2.010
 3044SOL    HW212139   5.286   4.050   2.070
 3045SOL     OW12140   4.043   4.534   2.811
 3045SOL    HW112141   4.136   4.570   2.816
 3045SOL    HW212142   4.037   4.449   2.863
 3046SOL     OW12143   4.063   4.233   2.868
 3046SOL    HW112144   4.011   4.150   2.851
 3046SOL    HW212145   4.140   4.238   2.804
 3047SOL     OW12146   4.862   4.104   3.540
 3047SOL    HW112147   4.817   4.167   3.604
 3047SOL    HW212148   4.955   4.135   3.523
 3048SOL     OW12149   4.884   3.931   3.339
 3048SOL    HW112150   4.884   3.995   3.416
 3048SOL    HW212151   4.912   3.979   3.256
 3049SOL     OW12152   3.732   5.050   2.062
 3049SOL    HW112153   3.639   5.071   2.031
 3049SOL    HW212154   3.742   4.951   2.075
 3050SOL     OW12155   4.726   4.520   3.100
 3050SOL    HW112156   4.767   4.488   3.186
 3050SOL    HW212157   4.630   4.493   3.097
 3051SOL     OW12158   3.764   4.268   2.976
 3051SOL    HW112159   3.849   4.235   2.935
 3051SOL    HW212160   3.777   4.283   3.074
 3052SOL     OW12161   3.913   4.244   3.584
 3052SOL    HW112162   3.972   4.204   3.514
 3052SOL    HW212163   3.855   4.315   3.543
 3053SOL     OW12164   4.539   4.296   2.187
 3053SOL    HW112165   4.546   4.207   2.141
 3053SOL    HW212166   4.445   4.330   2.179
 3054SOL     OW12167   4.395   4.188   3.131
 3054SOL    HW112168   4.361   4.099   3.101
 3054SOL    HW212169   4.421   4.242   3.051
 3055SOL     OW12170   4.197   4.224   2.053
 3055SOL    HW112171   4.258   4.304   2.057
 3055SOL    HW212172   4.102   4.255   2.060
 3056SOL     OW12173   3.883   4.861   3.328
 3056SOL    HW112174   3.905   4.800   3.404
 3056SOL    HW212175   3.893   4.812   3.242
 3057SOL     OW12176   3.807   4.982   2.884
 3057SOL    HW112177   3.802   4.981   2.984
 3057SOL    HW212178   3.724   4.941   2.846
 3058SOL     OW12179   3.987   4.050   2.582
 3058SOL    HW112180   3.908   4.101   2.548
 3058SOL    HW212181   3.978   4.035   2.680
 3059SOL     OW12182   4.546   4.726   3.234
 3059SOL    HW112183   4.586   4.725   3.142
 3059SOL    HW212184   4.556   4.818   3.274
 3060SOL     OW12185   4.640   4.634   2.153
 3060SOL    HW112186   4.703   4.672   2.085
 3060SOL    HW212187   4.680   4.551   2.192
 3061SOL     OW12188   4.096   5.012   3.352
 3061SOL    HW112189   4.083   5.105   3.318
 3061SOL    HW212190   4.012   4.960   3.339
 3062SOL     OW12191   4.763   4.822   2.558
 3062SOL    HW112192   4.693   4.775   2.612
 3062SOL    HW212193   4.822   4.754   2.515
 3063SOL     OW12194   4.738   3.960   2.833
 3063SOL    HW112195   4.730   3.924   2.740
 3063SOL    HW212196   4.736   3.884   2.898
 3064SOL     OW12197   3.829   4.737   3.588
 3064SOL    HW112198   3.752   4.704   3.642
 3064SOL    HW212199   3.914   4.707   3.630
 3065SOL     OW12200   4.396   3.927   3.351
 3065SOL    HW112201   4.486   3.911   3.311
 3065SOL    HW212202   4.404   3.932   3.450
 3066SOL     OW12203   3.799   4.069   1.895
 3066SOL    HW112204   3.707   4.041   1.866
 3066SOL    HW212205   3.830   4.146   1.839
 3067SOL     OW12206   3.796   3.890   2.180
 3067SOL    HW112207   3.779   3.973   2.126
 3067SOL    HW212208   3.886   3.853   2.158
 3068SOL     OW12209   4.337   4.566   3.293
 3068SOL    HW112210   4.393   4.647   3.276
 3068SOL    HW212211   4.396   4.486   3.296
 3069SOL     OW12212   4.440   4.289   3.570
 3069SOL    HW112213   4.459   4.354   3.644
 3069SOL    HW212214   4.500   4.209   3.579
 3070SOL     OW12215   4.318   4.469   2.514
 3070SOL    HW112216   4.368   4.554   2.495
 3070SOL    HW212217   4.230   4.471   2.466
 3071SOL     OW12218   4.583   4.680   2.723
 3071SOL    HW112219   4.637   4.611   2.771
 3071SOL    HW212220   4.551   4.749   2.789
 3072SOL     OW12221   4.807   4.708   1.949
 3072SOL    HW112222   4.784   4.761   1.867
 3072SOL    HW212223   4.888   4.652   1.930
 3073SOL     OW12224   3.803   4.964   2.515
 3073SOL    HW112225   3.802   4.917   2.603
 3073SOL    HW212226   3.885   4.936   2.464
 3074SOL     OW12227   4.152   4.148   2.382
 3074SOL    HW112228   4.182   4.076   2.320
 3074SOL    HW212229   4.113   4.108   2.465
 3075SOL     OW12230   4.041   4.271   3.142
 3075SOL    HW112231   4.079   4.212   3.214
 3075SOL    HW212232   4.081   4.245   3.054
 3076SOL     OW12233   4.725   3.758   3.016
 3076SOL    HW112234   4.662   3.686   2.985
 3076SOL    HW212235   4.818   3.722   3.016
 3077SOL     OW12236   4.494   5.054   2.163
 3077SOL    HW112237   4.448   4.967   2.180
 3077SOL    HW212238   4.585   5.051   2.204
 3078SOL     OW12239   3.763   4.801   2.162
 3078SOL    HW112240   3.862   4.790   2.153
 3078SOL    HW212241   3.723   4.715   2.194
 3079SOL     OW12242   3.954   4.352   3.837
 3079SOL    HW112243   3.861   4.350   3.874
 3079SOL    HW212244   3.955   4.313   3.745
 3080SOL     OW12245   3.949   3.999   4.720
 3080SOL    HW112246   3.984   3.982   4.812
 3080SOL    HW212247   3.861   3.954   4.708
 3081SOL     OW12248   3.743   4.092   4.371
 3081SOL    HW112249   3.661   4.135   4.410
 3081SOL    HW212250   3.715   4.019   4.308
 3082SOL     OW12251   4.859   4.427   4.441
 3082SOL    HW112252   4.916   4.505   4.416
 3082SOL    HW212253   4.799   4.453   4.517
 3083SOL     OW12254   4.492   4.868   4.747
 3083SOL    HW112255   4.414   4.885   4.807
 3083SOL    HW212256   4.526   4.955   4.711
 3084SOL     OW12257   4.409   4.736   4.389
 3084SOL    HW112258   4.478   4.720   4.459
 3084SOL    HW212259   4.336   4.793   4.427
 3085SOL     OW12260   3.964   4.815   4.610
 3085SOL    HW112261   3.978   4.731   4.662
 3085SOL    HW212262   3.909   4.879   4.665
 3086SOL     OW12263   4.330   4.688   3.847
 3086SOL    HW112264   4.337   4.772   3.793
 3086SOL    HW212265   4.376   4.701   3.935
 3087SOL     OW12266   3.846   4.367   4.287
 3087SOL    HW112267   3.801   4.279   4.304
 3087SOL    HW212268   3.845   4.421   4.371
 3088SOL     OW12269   4.533   3.728   4.226
 3088SOL    HW112270   4.573   3.819   4.217
 3088SOL    HW212271   4.433   3.736   4.232
 3089SOL     OW12272   3.921   4.700   4.988
 3089SOL    HW112273   4.010   4.655   4.974
 3089SOL    HW212274   3.848   4.635   4.969
 3090SOL     OW12275   4.322   4.453   3.994
 3090SOL    HW112276   4.346   4.522   3.926
 3090SOL    HW212277   4.244   4.486   4.048
 3091SOL     OW12278   4.765   4.425   4.153
 3091SOL    HW112279   4.791   4.421   4.249
 3091SOL    HW212280   4.680   4.374   4.139
 3092SOL     OW12281   3.800   4.535   4.513
 3092SOL    HW112282   3.899   4.523   4.522
 3092SOL    HW212283   3.776   4.630   4.534
 3093SOL     OW12284   4.589   4.072   3.919
 3093SOL    HW112285   4.648   4.135   3.870
 3093SOL    HW212286   4.608   3.978   3.890
 3094SOL     OW12287   4.274   3.920   4.609
 3094SOL    HW112288   4.269   3.915   4.709
 3094SOL    HW212289   4.276   4.016   4.580
 3095SOL     OW12290   4.045   4.667   3.966
 3095SOL    HW112291   4.127   4.706   3.924
 3095SOL    HW212292   4.018   4.585   3.917
 3096SOL     OW12293   4.106   4.424   4.204
 3096SOL    HW112294   4.151   4.334   4.201
 3096SOL    HW212295   4.012   4.413   4.237
 3097SOL     OW12296   4.338   3.846   3.841
 3097SOL    HW112297   4.436   3.824   3.848
 3097SOL    HW212298   4.307   3.829   3.748
 3098SOL     OW12299   4.646   4.227   4.623
 3098SOL    HW112300   4.621   4.218   4.527
 3098SOL    HW212301   4.694   4.145   4.654
 3099SOL     OW12302   4.263   3.788   4.236
 3099SOL    HW112303   4.182   3.789   4.294
 3099SOL    HW212304   4.266   3.871   4.181
 3100SOL     OW12305   5.158   4.912   3.765
 3100SOL    HW112306   5.190   4.836   3.822
 3100SOL    HW212307   5.066   4.939   3.795
 3101SOL     OW12308   4.021   3.759   3.895
 3101SOL    HW112309   4.070   3.843   3.874
 3101SOL    HW212310   4.083   3.694   3.940
 3102SOL     OW12311   4.659   3.960   4.204
 3102SOL    HW112312   4.611   4.001   4.126
 3102SOL    HW212313   4.758   3.958   4.185
 3103SOL     OW12314   4.183   4.876   4.465
 3103SOL    HW112315   4.112   4.849   4.530
 3103SOL    HW212316   4.157   4.848   4.372
 3104SOL     OW12317   4.756   4.273   3.740
 3104SOL    HW112318   4.715   4.355   3.701
 3104SOL    HW212319   4.820   4.299   3.813
 3105SOL     OW12320   4.590   4.178   4.366
 3105SOL    HW112321   4.558   4.250   4.304
 3105SOL    HW212322   4.614   4.097   4.313
 3106SOL     OW12323   4.741   3.763   4.477
 3106SOL    HW112324   4.669   3.768   4.408
 3106SOL    HW212325   4.717   3.694   4.546
 3107SOL     OW12326   4.251   3.980   4.052
 3107SOL    HW112327   4.278   3.921   3.977
 3107SOL    HW212328   4.251   4.075   4.021
 3108SOL     OW12329   4.429   4.774   4.092
 3108SOL    HW112330   4.415   4.781   4.191
 3108SOL    HW212331   4.513   4.723   4.074
 3109SOL     OW12332   4.134   4.537   4.975
 3109SOL    HW112333   4.220   4.549   5.025
 3109SOL    HW212334   4.092   4.450   5.002
 3110SOL     OW12335   4.091   4.824   4.225
 3110SOL    HW112336   4.084   4.907   4.169
 3110SOL    HW212337   4.095   4.744   4.165
 3111SOL     OW12338   4.290   4.261   4.589
 3111SOL    HW112339   4.302   4.327   4.515
 3111SOL    HW212340   4.336   4.295   4.672
 3112SOL     OW12341   4.297   4.594   4.753
 3112SOL    HW112342   4.341   4.683   4.744
 3112SOL    HW212343   4.234   4.594   4.830
 3113SOL     OW12344   5.084   4.586   4.769
 3113SOL    HW112345   5.009   4.586   4.703
 3113SOL    HW212346   5.121   4.494   4.778
 3114SOL     OW12347   4.933   4.249   3.999
 3114SOL    HW112348   4.946   4.165   4.053
 3114SOL    HW212349   4.904   4.323   4.059
 3115SOL     OW12350   4.031   3.937   4.955
 3115SOL    HW112351   4.008   3.974   5.045
 3115SOL    HW212352   4.001   3.842   4.949
 3116SOL     OW12353   4.456   4.358   4.788
 3116SOL    HW112354   4.515   4.332   4.712
 3116SOL    HW212355   4.428   4.454   4.777
 3117SOL     OW12356   4.031   3.787   4.342
 3117SOL    HW112357   4.020   3.881   4.375
 3117SOL    HW212358   4.026   3.724   4.419
 3118SOL     OW12359   4.747   4.490   4.690
 3118SOL    HW112360   4.762   4.511   4.786
 3118SOL    HW212361   4.717   4.395   4.681
 3119SOL     OW12362   5.264   3.998   3.849
 3119SOL    HW112363   5.203   3.923   3.872
 3119SOL    HW212364   5.286   4.050   3.932
 3120SOL     OW12365   4.043   4.534   4.673
 3120SOL    HW112366   4.136   4.570   4.678
 3120SOL    HW212367   4.037   4.449   4.725
 3121SOL     OW12368   4.063   4.233   4.730
 3121SOL    HW112369   4.011   4.150   4.713
 3121SOL    HW212370   4.140   4.238   4.666
 3122SOL     OW12371   4.884   3.931   5.201
 3122SOL    HW112372   4.884   3.995   5.278
 3122SOL    HW212373   4.912   3.979   5.118
 3123SOL     OW12374   3.732   5.050   3.924
 3123SOL    HW112375   3.639   5.071   3.893
 3123SOL    HW212376   3.742   4.951   3.937
 3124SOL     OW12377   4.726   4.520   4.962
 3124SOL    HW112378   4.767   4.488   5.048
 3124SOL    HW212379   4.630   4.493   4.959
 3125SOL     OW12380   3.764   4.268   4.838
 3125SOL    HW112381   3.849   4.235   4.797
 3125SOL    HW212382   3.777   4.283   4.936
 3126SOL     OW12383   4.539   4.296   4.049
 3126SOL    HW112384   4.546   4.207   4.003
 3126SOL    HW212385   4.445   4.330   4.041
 3127SOL     OW12386   4.395   4.188   4.993
 3127SOL    HW112387   4.361   4.099   4.963
 3127SOL    HW212388   4.421   4.242   4.913
 3128SOL     OW12389   4.197   4.224   3.915
 3128SOL    HW112390   4.258   4.304   3.919
 3128SOL    HW212391   4.102   4.255   3.922
 3129SOL     OW12392   3.883   4.861   5.190
 3129SOL    HW112393   3.905   4.800   5.266
 3129SOL    HW212394   3.893   4.812   5.104
 3130SOL     OW12395   3.807   4.982   4.746
 3130SOL    HW112396   3.802   4.981   4.846
 3130SOL    HW212397   3.724   4.941   4.708
 3131SOL     OW12398   3.987   4.050   4.444
 3131SOL    HW112399   3.908   4.101   4.410
 3131SOL    HW212400   3.978   4.035   4.542
 3132SOL     OW12401   4.546   4.726   5.096
 3132SOL    HW112402   4.586   4.725   5.004
 3132SOL    HW212403   4.556   4.818   5.136
 3133SOL     OW12404   4.763   4.822   4.420
 3133SOL    HW112405   4.693   4.775   4.474
 3133SOL    HW212406   4.822   4.754   4.377
 3134SOL     OW12407   4.738   3.960   4.695
 3134SOL    HW112408   4.730   3.924   4.602
 3134SOL    HW212409   4.736   3.884   4.760
 3135SOL     OW12410   3.799   4.069   3.757
 3135SOL    HW112411   3.707   4.041   3.728
 3135SOL    HW212412   3.830   4.146   3.701
 3136SOL     OW12413   3.796   3.890   4.042
 3136SOL    HW112414   3.779   3.973   3.988
 3136SOL    HW212415   3.886   3.853   4.020
 3137SOL     OW12416   4.318   4.469   4.376
 3137SOL    HW112417   4.368   4.554   4.357
 3137SOL    HW212418   4.230   4.471   4.328
 3138SOL     OW12419   4.583   4.680   4.585
 3138SOL    HW112420   4.637   4.611   4.633
 3138SOL    HW212421   4.551   4.749   4.651
 3139SOL     OW12422   3.803   4.964   4.377
 3139SOL    HW112423   3.802   4.917   4.465
 3139SOL    HW212424   3.885   4.936   4.326
 3140SOL     OW12425   4.152   4.148   4.244
 3140SOL    HW112426   4.182   4.076   4.182
 3140SOL    HW212427   4.113   4.108   4.327
 3141SOL     OW12428   4.725   3.758   4.878
 3141SOL    HW112429   4.662   3.686   4.847
 3141SOL    HW212430   4.818   3.722   4.878
 3142SOL     OW12431   4.494   5.054   4.025
 3142SOL    HW112432   4.448   4.967   4.042
 3142SOL    HW212433   4.585   5.051   4.066
 3143SOL     OW12434   3.763   4.801   4.024
 3143SOL    HW112435   3.862   4.790   4.015
 3143SOL    HW212436   3.723   4.715   4.056
   5.00000   5.00000   5.00000
