Spherical Glycine cluster of radius 0.6 nm
   100
    1GLY      N    1   2.222   2.321   2.327
    1GLY     CA    2   2.188   2.448   2.258
    1GLY      C    3   2.180   2.429   2.106
    1GLY      O    4   2.232   2.323   2.058
    1GLY     O1    5   2.128   2.523   2.040
    1GLY     H1    6   2.224   2.332   2.432
    1GLY     H2    7   2.148   2.250   2.303
    1GLY    HA1    8   2.092   2.486   2.298
    1GLY    HA2    9   2.267   2.522   2.280
    1GLY     H3   10   2.315   2.285   2.295
    1GLY      N   11   2.222   2.321   2.876
    1GLY     CA   12   2.188   2.448   2.807
    1GLY      C   13   2.180   2.429   2.655
    1GLY      O   14   2.232   2.323   2.607
    1GLY     O1   15   2.128   2.523   2.590
    1GLY     H1   16   2.224   2.332   2.981
    1GLY     H2   17   2.148   2.250   2.852
    1GLY    HA1   18   2.092   2.486   2.847
    1GLY    HA2   19   2.267   2.522   2.830
    1GLY     H3   20   2.315   2.285   2.844
    1GLY      N   21   2.480   2.206   2.510
    1GLY     CA   22   2.608   2.172   2.441
    1GLY      C   23   2.595   2.188   2.289
    1GLY      O   24   2.478   2.197   2.241
    1GLY     O1   25   2.702   2.187   2.224
    1GLY     H1   26   2.489   2.199   2.615
    1GLY     H2   27   2.456   2.306   2.486
    1GLY    HA1   28   2.688   2.236   2.481
    1GLY    HA2   29   2.632   2.067   2.464
    1GLY     H3   30   2.403   2.144   2.478
    1GLY      N   31   2.480   2.206   3.059
    1GLY     CA   32   2.608   2.172   2.990
    1GLY      C   33   2.595   2.188   2.838
    1GLY      O   34   2.478   2.197   2.790
    1GLY     O1   35   2.702   2.187   2.773
    1GLY     H1   36   2.489   2.199   3.164
    1GLY     H2   37   2.456   2.306   3.035
    1GLY    HA1   38   2.688   2.236   3.030
    1GLY    HA2   39   2.632   2.067   3.013
    1GLY     H3   40   2.403   2.144   3.027
    1GLY      N   41   2.604   2.650   2.144
    1GLY     CA   42   2.511   2.557   2.075
    1GLY      C   43   2.531   2.560   1.923
    1GLY      O   44   2.597   2.657   1.875
    1GLY     O1   45   2.477   2.467   1.857
    1GLY     H1   46   2.594   2.647   2.249
    1GLY     H2   47   2.703   2.621   2.120
    1GLY    HA1   48   2.526   2.455   2.115
    1GLY    HA2   49   2.408   2.588   2.097
    1GLY     H3   50   2.589   2.749   2.112
    1GLY      N   51   2.926   2.321   2.327
    1GLY     CA   52   2.892   2.448   2.258
    1GLY      C   53   2.885   2.429   2.106
    1GLY      O   54   2.936   2.323   2.058
    1GLY     O1   55   2.832   2.523   2.040
    1GLY     H1   56   2.929   2.332   2.432
    1GLY     H2   57   2.852   2.250   2.303
    1GLY    HA1   58   2.797   2.486   2.298
    1GLY    HA2   59   2.971   2.522   2.280
    1GLY     H3   60   3.019   2.285   2.295
    1GLY      N   61   2.604   2.650   2.693
    1GLY     CA   62   2.511   2.557   2.624
    1GLY      C   63   2.531   2.560   2.472
    1GLY      O   64   2.597   2.657   2.424
    1GLY     O1   65   2.477   2.467   2.407
    1GLY     H1   66   2.594   2.647   2.798
    1GLY     H2   67   2.703   2.621   2.669
    1GLY    HA1   68   2.526   2.455   2.664
    1GLY    HA2   69   2.408   2.588   2.647
    1GLY     H3   70   2.589   2.749   2.661
    1GLY      N   71   2.128   2.817   2.510
    1GLY     CA   72   2.255   2.783   2.441
    1GLY      C   73   2.242   2.798   2.289
    1GLY      O   74   2.125   2.807   2.241
    1GLY     O1   75   2.350   2.797   2.224
    1GLY     H1   76   2.136   2.809   2.615
    1GLY     H2   77   2.104   2.916   2.486
    1GLY    HA1   78   2.336   2.846   2.481
    1GLY    HA2   79   2.280   2.677   2.464
    1GLY     H3   80   2.050   2.754   2.478
    1GLY      N   81   2.926   2.321   2.876
    1GLY     CA   82   2.892   2.448   2.807
    1GLY      C   83   2.885   2.429   2.655
    1GLY      O   84   2.936   2.323   2.607
    1GLY     O1   85   2.832   2.523   2.590
    1GLY     H1   86   2.929   2.332   2.981
    1GLY     H2   87   2.852   2.250   2.852
    1GLY    HA1   88   2.797   2.486   2.847
    1GLY    HA2   89   2.971   2.522   2.830
    1GLY     H3   90   3.019   2.285   2.844
    1GLY      N   91   2.832   2.817   2.510
    1GLY     CA   92   2.960   2.783   2.441
    1GLY      C   93   2.947   2.798   2.289
    1GLY      O   94   2.830   2.807   2.241
    1GLY     O1   95   3.054   2.797   2.224
    1GLY     H1   96   2.841   2.809   2.615
    1GLY     H2   97   2.808   2.916   2.486
    1GLY    HA1   98   3.040   2.846   2.481
    1GLY    HA2   99   2.984   2.677   2.464
    1GLY     H3  100   2.755   2.754   2.478
   5.00000  5.00000  5.00000  