Spherical Glycine cluster of radius 0.8 nm
   280
    1GLY      N    1   2.252   2.040   2.144
    1GLY     CA    2   2.159   1.946   2.075
    1GLY      C    3   2.179   1.950   1.923
    1GLY      O    4   2.245   2.047   1.875
    1GLY     O1    5   2.124   1.857   1.857
    1GLY     H1    6   2.241   2.036   2.249
    1GLY     H2    7   2.350   2.011   2.120
    1GLY    HA1    8   2.174   1.845   2.115
    1GLY    HA2    9   2.055   1.978   2.097
    1GLY     H3   10   2.237   2.138   2.112
    1GLY      N   11   2.574   1.711   2.327
    1GLY     CA   12   2.540   1.838   2.258
    1GLY      C   13   2.533   1.819   2.106
    1GLY      O   14   2.584   1.713   2.058
    1GLY     O1   15   2.480   1.912   2.040
    1GLY     H1   16   2.576   1.722   2.432
    1GLY     H2   17   2.500   1.640   2.303
    1GLY    HA1   18   2.445   1.876   2.298
    1GLY    HA2   19   2.619   1.912   2.280
    1GLY     H3   20   2.667   1.675   2.295
    1GLY      N   21   2.252   2.040   2.693
    1GLY     CA   22   2.159   1.946   2.624
    1GLY      C   23   2.179   1.950   2.472
    1GLY      O   24   2.245   2.047   2.424
    1GLY     O1   25   2.124   1.857   2.407
    1GLY     H1   26   2.241   2.036   2.798
    1GLY     H2   27   2.350   2.011   2.669
    1GLY    HA1   28   2.174   1.845   2.664
    1GLY    HA2   29   2.055   1.978   2.647
    1GLY     H3   30   2.237   2.138   2.661
    1GLY      N   31   1.776   2.206   2.510
    1GLY     CA   32   1.903   2.172   2.441
    1GLY      C   33   1.890   2.188   2.289
    1GLY      O   34   1.773   2.197   2.241
    1GLY     O1   35   1.998   2.187   2.224
    1GLY     H1   36   1.784   2.199   2.615
    1GLY     H2   37   1.751   2.306   2.486
    1GLY    HA1   38   1.984   2.236   2.481
    1GLY    HA2   39   1.927   2.067   2.464
    1GLY     H3   40   1.698   2.144   2.478
    1GLY      N   41   2.574   1.711   2.876
    1GLY     CA   42   2.540   1.838   2.807
    1GLY      C   43   2.533   1.819   2.655
    1GLY      O   44   2.584   1.713   2.607
    1GLY     O1   45   2.480   1.912   2.590
    1GLY     H1   46   2.576   1.722   2.981
    1GLY     H2   47   2.500   1.640   2.852
    1GLY    HA1   48   2.445   1.876   2.847
    1GLY    HA2   49   2.619   1.912   2.830
    1GLY     H3   50   2.667   1.675   2.844
    1GLY      N   51   2.222   2.321   2.327
    1GLY     CA   52   2.188   2.448   2.258
    1GLY      C   53   2.180   2.429   2.106
    1GLY      O   54   2.232   2.323   2.058
    1GLY     O1   55   2.128   2.523   2.040
    1GLY     H1   56   2.224   2.332   2.432
    1GLY     H2   57   2.148   2.250   2.303
    1GLY    HA1   58   2.092   2.486   2.298
    1GLY    HA2   59   2.267   2.522   2.280
    1GLY     H3   60   2.315   2.285   2.295
    1GLY      N   61   1.900   2.650   2.693
    1GLY     CA   62   1.806   2.557   2.624
    1GLY      C   63   1.827   2.560   2.472
    1GLY      O   64   1.892   2.657   2.424
    1GLY     O1   65   1.772   2.467   2.407
    1GLY     H1   66   1.889   2.647   2.798
    1GLY     H2   67   1.998   2.621   2.669
    1GLY    HA1   68   1.821   2.455   2.664
    1GLY    HA2   69   1.703   2.588   2.647
    1GLY     H3   70   1.884   2.749   2.661
    1GLY      N   71   2.222   2.321   2.876
    1GLY     CA   72   2.188   2.448   2.807
    1GLY      C   73   2.180   2.429   2.655
    1GLY      O   74   2.232   2.323   2.607
    1GLY     O1   75   2.128   2.523   2.590
    1GLY     H1   76   2.224   2.332   2.981
    1GLY     H2   77   2.148   2.250   2.852
    1GLY    HA1   78   2.092   2.486   2.847
    1GLY    HA2   79   2.267   2.522   2.830
    1GLY     H3   80   2.315   2.285   2.844
    1GLY      N   81   2.957   2.040   2.144
    1GLY     CA   82   2.863   1.946   2.075
    1GLY      C   83   2.884   1.950   1.923
    1GLY      O   84   2.949   2.047   1.875
    1GLY     O1   85   2.829   1.857   1.857
    1GLY     H1   86   2.946   2.036   2.249
    1GLY     H2   87   3.055   2.011   2.120
    1GLY    HA1   88   2.878   1.845   2.115
    1GLY    HA2   89   2.760   1.978   2.097
    1GLY     H3   90   2.941   2.138   2.112
    1GLY      N   91   2.480   2.206   1.961
    1GLY     CA   92   2.608   2.172   1.892
    1GLY      C   93   2.595   2.188   1.740
    1GLY      O   94   2.478   2.197   1.691
    1GLY     O1   95   2.702   2.187   1.674
    1GLY     H1   96   2.489   2.199   2.065
    1GLY     H2   97   2.456   2.306   1.936
    1GLY    HA1   98   2.688   2.236   1.932
    1GLY    HA2   99   2.632   2.067   1.914
    1GLY     H3  100   2.403   2.144   1.929
    1GLY      N  101   2.957   2.040   2.693
    1GLY     CA  102   2.863   1.946   2.624
    1GLY      C  103   2.884   1.950   2.472
    1GLY      O  104   2.949   2.047   2.424
    1GLY     O1  105   2.829   1.857   2.407
    1GLY     H1  106   2.946   2.036   2.798
    1GLY     H2  107   3.055   2.011   2.669
    1GLY    HA1  108   2.878   1.845   2.664
    1GLY    HA2  109   2.760   1.978   2.647
    1GLY     H3  110   2.941   2.138   2.661
    1GLY      N  111   2.480   2.206   2.510
    1GLY     CA  112   2.608   2.172   2.441
    1GLY      C  113   2.595   2.188   2.289
    1GLY      O  114   2.478   2.197   2.241
    1GLY     O1  115   2.702   2.187   2.224
    1GLY     H1  116   2.489   2.199   2.615
    1GLY     H2  117   2.456   2.306   2.486
    1GLY    HA1  118   2.688   2.236   2.481
    1GLY    HA2  119   2.632   2.067   2.464
    1GLY     H3  120   2.403   2.144   2.478
    1GLY      N  121   2.480   2.206   3.059
    1GLY     CA  122   2.608   2.172   2.990
    1GLY      C  123   2.595   2.188   2.838
    1GLY      O  124   2.478   2.197   2.790
    1GLY     O1  125   2.702   2.187   2.773
    1GLY     H1  126   2.489   2.199   3.164
    1GLY     H2  127   2.456   2.306   3.035
    1GLY    HA1  128   2.688   2.236   3.030
    1GLY    HA2  129   2.632   2.067   3.013
    1GLY     H3  130   2.403   2.144   3.027
    1GLY      N  131   2.604   2.650   2.144
    1GLY     CA  132   2.511   2.557   2.075
    1GLY      C  133   2.531   2.560   1.923
    1GLY      O  134   2.597   2.657   1.875
    1GLY     O1  135   2.477   2.467   1.857
    1GLY     H1  136   2.594   2.647   2.249
    1GLY     H2  137   2.703   2.621   2.120
    1GLY    HA1  138   2.526   2.455   2.115
    1GLY    HA2  139   2.408   2.588   2.097
    1GLY     H3  140   2.589   2.749   2.112
    1GLY      N  141   2.128   2.817   1.961
    1GLY     CA  142   2.255   2.783   1.892
    1GLY      C  143   2.242   2.798   1.740
    1GLY      O  144   2.125   2.807   1.691
    1GLY     O1  145   2.350   2.797   1.674
    1GLY     H1  146   2.136   2.809   2.065
    1GLY     H2  147   2.104   2.916   1.936
    1GLY    HA1  148   2.336   2.846   1.932
    1GLY    HA2  149   2.280   2.677   1.914
    1GLY     H3  150   2.050   2.754   1.929
    1GLY      N  151   2.926   2.321   2.327
    1GLY     CA  152   2.892   2.448   2.258
    1GLY      C  153   2.885   2.429   2.106
    1GLY      O  154   2.936   2.323   2.058
    1GLY     O1  155   2.832   2.523   2.040
    1GLY     H1  156   2.929   2.332   2.432
    1GLY     H2  157   2.852   2.250   2.303
    1GLY    HA1  158   2.797   2.486   2.298
    1GLY    HA2  159   2.971   2.522   2.280
    1GLY     H3  160   3.019   2.285   2.295
    1GLY      N  161   2.604   2.650   2.693
    1GLY     CA  162   2.511   2.557   2.624
    1GLY      C  163   2.531   2.560   2.472
    1GLY      O  164   2.597   2.657   2.424
    1GLY     O1  165   2.477   2.467   2.407
    1GLY     H1  166   2.594   2.647   2.798
    1GLY     H2  167   2.703   2.621   2.669
    1GLY    HA1  168   2.526   2.455   2.664
    1GLY    HA2  169   2.408   2.588   2.647
    1GLY     H3  170   2.589   2.749   2.661
    1GLY      N  171   2.128   2.817   2.510
    1GLY     CA  172   2.255   2.783   2.441
    1GLY      C  173   2.242   2.798   2.289
    1GLY      O  174   2.125   2.807   2.241
    1GLY     O1  175   2.350   2.797   2.224
    1GLY     H1  176   2.136   2.809   2.615
    1GLY     H2  177   2.104   2.916   2.486
    1GLY    HA1  178   2.336   2.846   2.481
    1GLY    HA2  179   2.280   2.677   2.464
    1GLY     H3  180   2.050   2.754   2.478
    1GLY      N  181   2.926   2.321   2.876
    1GLY     CA  182   2.892   2.448   2.807
    1GLY      C  183   2.885   2.429   2.655
    1GLY      O  184   2.936   2.323   2.607
    1GLY     O1  185   2.832   2.523   2.590
    1GLY     H1  186   2.929   2.332   2.981
    1GLY     H2  187   2.852   2.250   2.852
    1GLY    HA1  188   2.797   2.486   2.847
    1GLY    HA2  189   2.971   2.522   2.830
    1GLY     H3  190   3.019   2.285   2.844
    1GLY      N  191   2.604   2.650   3.242
    1GLY     CA  192   2.511   2.557   3.173
    1GLY      C  193   2.531   2.560   3.021
    1GLY      O  194   2.597   2.657   2.973
    1GLY     O1  195   2.477   2.467   2.956
    1GLY     H1  196   2.594   2.647   3.347
    1GLY     H2  197   2.703   2.621   3.218
    1GLY    HA1  198   2.526   2.455   3.213
    1GLY    HA2  199   2.408   2.588   3.196
    1GLY     H3  200   2.589   2.749   3.210
    1GLY      N  201   2.128   2.817   3.059
    1GLY     CA  202   2.255   2.783   2.990
    1GLY      C  203   2.242   2.798   2.838
    1GLY      O  204   2.125   2.807   2.790
    1GLY     O1  205   2.350   2.797   2.773
    1GLY     H1  206   2.136   2.809   3.164
    1GLY     H2  207   2.104   2.916   3.035
    1GLY    HA1  208   2.336   2.846   3.030
    1GLY    HA2  209   2.280   2.677   3.013
    1GLY     H3  210   2.050   2.754   3.027
    1GLY      N  211   2.574   2.931   2.327
    1GLY     CA  212   2.540   3.058   2.258
    1GLY      C  213   2.533   3.039   2.106
    1GLY      O  214   2.584   2.934   2.058
    1GLY     O1  215   2.480   3.133   2.040
    1GLY     H1  216   2.576   2.942   2.432
    1GLY     H2  217   2.500   2.860   2.303
    1GLY    HA1  218   2.445   3.096   2.298
    1GLY    HA2  219   2.619   3.132   2.280
    1GLY     H3  220   2.667   2.895   2.295
    1GLY      N  221   2.252   3.260   2.693
    1GLY     CA  222   2.159   3.167   2.624
    1GLY      C  223   2.179   3.170   2.472
    1GLY      O  224   2.245   3.267   2.424
    1GLY     O1  225   2.124   3.078   2.407
    1GLY     H1  226   2.241   3.257   2.798
    1GLY     H2  227   2.350   3.231   2.669
    1GLY    HA1  228   2.174   3.065   2.664
    1GLY    HA2  229   2.055   3.198   2.647
    1GLY     H3  230   2.237   3.359   2.661
    1GLY      N  231   2.574   2.931   2.876
    1GLY     CA  232   2.540   3.058   2.807
    1GLY      C  233   2.533   3.039   2.655
    1GLY      O  234   2.584   2.934   2.607
    1GLY     O1  235   2.480   3.133   2.590
    1GLY     H1  236   2.576   2.942   2.981
    1GLY     H2  237   2.500   2.860   2.852
    1GLY    HA1  238   2.445   3.096   2.847
    1GLY    HA2  239   2.619   3.132   2.830
    1GLY     H3  240   2.667   2.895   2.844
    1GLY      N  241   3.309   2.650   2.693
    1GLY     CA  242   3.216   2.557   2.624
    1GLY      C  243   3.236   2.560   2.472
    1GLY      O  244   3.302   2.657   2.424
    1GLY     O1  245   3.181   2.467   2.407
    1GLY     H1  246   3.298   2.647   2.798
    1GLY     H2  247   3.407   2.621   2.669
    1GLY    HA1  248   3.230   2.455   2.664
    1GLY    HA2  249   3.112   2.588   2.647
    1GLY     H3  250   3.293   2.749   2.661
    1GLY      N  251   2.832   2.817   2.510
    1GLY     CA  252   2.960   2.783   2.441
    1GLY      C  253   2.947   2.798   2.289
    1GLY      O  254   2.830   2.807   2.241
    1GLY     O1  255   3.054   2.797   2.224
    1GLY     H1  256   2.841   2.809   2.615
    1GLY     H2  257   2.808   2.916   2.486
    1GLY    HA1  258   3.040   2.846   2.481
    1GLY    HA2  259   2.984   2.677   2.464
    1GLY     H3  260   2.755   2.754   2.478
    1GLY      N  261   2.832   2.817   3.059
    1GLY     CA  262   2.960   2.783   2.990
    1GLY      C  263   2.947   2.798   2.838
    1GLY      O  264   2.830   2.807   2.790
    1GLY     O1  265   3.054   2.797   2.773
    1GLY     H1  266   2.841   2.809   3.164
    1GLY     H2  267   2.808   2.916   3.035
    1GLY    HA1  268   3.040   2.846   3.030
    1GLY    HA2  269   2.984   2.677   3.013
    1GLY     H3  270   2.755   2.754   3.027
    1GLY      N  271   2.957   3.260   2.693
    1GLY     CA  272   2.863   3.167   2.624
    1GLY      C  273   2.884   3.170   2.472
    1GLY      O  274   2.949   3.267   2.424
    1GLY     O1  275   2.829   3.078   2.407
    1GLY     H1  276   2.946   3.257   2.798
    1GLY     H2  277   3.055   3.231   2.669
    1GLY    HA1  278   2.878   3.065   2.664
    1GLY    HA2  279   2.760   3.198   2.647
    1GLY     H3  280   2.941   3.359   2.661
   5.00000  5.00000  5.00000  